<?xml version="1.0" encoding="ISO-8859-1"?>
<modeling>
 <generator>
  <i name="program" type="string">vasp </i>
  <i name="version" type="string">6.4.1  </i>
  <i name="subversion" type="string">05Apr23 (build Jul 31 2023 22:51:27) complex                          parallel </i>
  <i name="platform" type="string">LinuxIFC </i>
  <i name="date" type="string">2026 01 15 </i>
  <i name="time" type="string">11:09:06 </i>
 </generator>
 <incar>
  <i type="string" name="PREC">Accurate</i>
  <i type="string" name="ALGO">Fast</i>
  <i type="int" name="ISPIN">     2</i>
  <i type="int" name="NELM">   100</i>
  <i type="int" name="IBRION">     2</i>
  <i name="EDIFF">      0.00000100</i>
  <i name="EDIFFG">     -0.02000000</i>
  <i type="int" name="NSW">   500</i>
  <i type="int" name="ISIF">     3</i>
  <i name="ENCUT">    520.00000000</i>
  <v name="MAGMOM">      5.00000000      5.00000000</v>
  <i type="logical" name="LREAL"> F  </i>
  <i type="int" name="ISMEAR">     1</i>
  <i name="SIGMA">      0.20000000</i>
  <i type="int" name="LMAXMIX">     4</i>
  <i type="logical" name="LWAVE"> F  </i>
  <i type="logical" name="LCHARG"> F  </i>
  <i type="int" name="LORBIT">    11</i>
  <i type="logical" name="LASPH"> T  </i>
  <i type="logical" name="LDAU"> F  </i>
 </incar>
 <primitive_cell>
  <structure name="primitive_cell" >
   <crystal>
    <varray name="basis" >
     <v>       1.43151775       1.43151775      -1.43151775 </v>
     <v>      -1.43151775       1.43151775       1.43151775 </v>
     <v>       1.43151775      -1.43151775       1.43151775 </v>
    </varray>
    <i name="volume">     11.73411129 </i>
    <varray name="rec_basis" >
     <v>       0.34927964       0.34927964      -0.00000000 </v>
     <v>      -0.00000000       0.34927964       0.34927964 </v>
     <v>       0.34927964      -0.00000000       0.34927964 </v>
    </varray>
   </crystal>
   <varray name="positions" >
    <v>       0.00000000       0.00000000       0.00000000 </v>
   </varray>
  </structure>
  <varray name="primitive_index" >
   <v type="int" >        1 </v>
  </varray>
 </primitive_cell>
 <kpoints>
  <generation param="Gamma">
   <v type="int" name="divisions">      15       15       15 </v>
   <v name="usershift">      0.00000000       0.00000000       0.00000000 </v>
   <v name="genvec1">      0.06666667       0.00000000       0.00000000 </v>
   <v name="genvec2">      0.00000000       0.06666667       0.00000000 </v>
   <v name="genvec3">     -0.00000000       0.00000000       0.06666667 </v>
   <v name="shift">      0.00000000       0.00000000       0.00000000 </v>
  </generation>
  <varray name="kpointlist" >
   <v>       0.00000000       0.00000000       0.00000000 </v>
   <v>       0.06666667       0.00000000       0.00000000 </v>
   <v>       0.13333333      -0.00000000       0.00000000 </v>
   <v>       0.20000000      -0.00000000       0.00000000 </v>
   <v>       0.26666667      -0.00000000       0.00000000 </v>
   <v>       0.33333333       0.00000000       0.00000000 </v>
   <v>       0.40000000      -0.00000000       0.00000000 </v>
   <v>       0.46666667      -0.00000000       0.00000000 </v>
   <v>       0.06666667       0.06666667       0.00000000 </v>
   <v>       0.13333333       0.06666667       0.00000000 </v>
   <v>       0.20000000       0.06666667       0.00000000 </v>
   <v>       0.26666667       0.06666667       0.00000000 </v>
   <v>       0.33333333       0.06666667       0.00000000 </v>
   <v>       0.40000000       0.06666667       0.00000000 </v>
   <v>       0.46666667       0.06666667       0.00000000 </v>
   <v>       0.13333333       0.13333333       0.00000000 </v>
   <v>       0.20000000       0.13333333       0.00000000 </v>
   <v>       0.26666667       0.13333333       0.00000000 </v>
   <v>       0.33333333       0.13333333       0.00000000 </v>
   <v>       0.40000000       0.13333333       0.00000000 </v>
   <v>       0.46666667       0.13333333       0.00000000 </v>
   <v>       0.20000000       0.20000000       0.00000000 </v>
   <v>       0.26666667       0.20000000       0.00000000 </v>
   <v>       0.33333333       0.20000000       0.00000000 </v>
   <v>       0.40000000       0.20000000       0.00000000 </v>
   <v>       0.46666667       0.20000000       0.00000000 </v>
   <v>       0.26666667       0.26666667       0.00000000 </v>
   <v>       0.33333333       0.26666667       0.00000000 </v>
   <v>       0.40000000       0.26666667       0.00000000 </v>
   <v>       0.46666667       0.26666667       0.00000000 </v>
   <v>       0.33333333       0.33333333       0.00000000 </v>
   <v>       0.40000000       0.33333333       0.00000000 </v>
   <v>       0.46666667       0.33333333       0.00000000 </v>
   <v>       0.40000000       0.40000000       0.00000000 </v>
   <v>       0.46666667       0.40000000       0.00000000 </v>
   <v>       0.46666667       0.46666667       0.00000000 </v>
   <v>       0.06666667       0.06666667       0.06666667 </v>
   <v>       0.13333333       0.06666667       0.06666667 </v>
   <v>       0.20000000       0.06666667       0.06666667 </v>
   <v>       0.26666667       0.06666667       0.06666667 </v>
   <v>       0.33333333       0.06666667       0.06666667 </v>
   <v>       0.40000000       0.06666667       0.06666667 </v>
   <v>       0.46666667       0.06666667       0.06666667 </v>
   <v>       0.13333333       0.13333333       0.06666667 </v>
   <v>       0.20000000       0.13333333       0.06666667 </v>
   <v>       0.26666667       0.13333333       0.06666667 </v>
   <v>       0.33333333       0.13333333       0.06666667 </v>
   <v>       0.40000000       0.13333333       0.06666667 </v>
   <v>       0.46666667       0.13333333       0.06666667 </v>
   <v>       0.20000000       0.20000000       0.06666667 </v>
   <v>       0.26666667       0.20000000       0.06666667 </v>
   <v>       0.33333333       0.20000000       0.06666667 </v>
   <v>       0.40000000       0.20000000       0.06666667 </v>
   <v>       0.46666667       0.20000000       0.06666667 </v>
   <v>       0.26666667       0.26666667       0.06666667 </v>
   <v>       0.33333333       0.26666667       0.06666667 </v>
   <v>       0.40000000       0.26666667       0.06666667 </v>
   <v>       0.46666667       0.26666667       0.06666667 </v>
   <v>       0.33333333       0.33333333       0.06666667 </v>
   <v>       0.40000000       0.33333333       0.06666667 </v>
   <v>       0.46666667       0.33333333       0.06666667 </v>
   <v>       0.40000000       0.40000000       0.06666667 </v>
   <v>       0.46666667       0.40000000       0.06666667 </v>
   <v>       0.46666667       0.46666667       0.06666667 </v>
   <v>       0.13333333       0.13333333       0.13333333 </v>
   <v>       0.20000000       0.13333333       0.13333333 </v>
   <v>       0.26666667       0.13333333       0.13333333 </v>
   <v>       0.33333333       0.13333333       0.13333333 </v>
   <v>       0.40000000       0.13333333       0.13333333 </v>
   <v>       0.46666667       0.13333333       0.13333333 </v>
   <v>       0.20000000       0.20000000       0.13333333 </v>
   <v>       0.26666667       0.20000000       0.13333333 </v>
   <v>       0.33333333       0.20000000       0.13333333 </v>
   <v>       0.40000000       0.20000000       0.13333333 </v>
   <v>       0.46666667       0.20000000       0.13333333 </v>
   <v>       0.26666667       0.26666667       0.13333333 </v>
   <v>       0.33333333       0.26666667       0.13333333 </v>
   <v>       0.40000000       0.26666667       0.13333333 </v>
   <v>       0.46666667       0.26666667       0.13333333 </v>
   <v>       0.33333333       0.33333333       0.13333333 </v>
   <v>       0.40000000       0.33333333       0.13333333 </v>
   <v>       0.46666667       0.33333333       0.13333333 </v>
   <v>       0.40000000       0.40000000       0.13333333 </v>
   <v>       0.46666667       0.40000000       0.13333333 </v>
   <v>       0.46666667       0.46666667       0.13333333 </v>
   <v>       0.20000000       0.20000000       0.20000000 </v>
   <v>       0.26666667       0.20000000       0.20000000 </v>
   <v>       0.33333333       0.20000000       0.20000000 </v>
   <v>       0.40000000       0.20000000       0.20000000 </v>
   <v>       0.46666667       0.20000000       0.20000000 </v>
   <v>       0.26666667       0.26666667       0.20000000 </v>
   <v>       0.33333333       0.26666667       0.20000000 </v>
   <v>       0.40000000       0.26666667       0.20000000 </v>
   <v>       0.46666667       0.26666667       0.20000000 </v>
   <v>       0.33333333       0.33333333       0.20000000 </v>
   <v>       0.40000000       0.33333333       0.20000000 </v>
   <v>       0.46666667       0.33333333       0.20000000 </v>
   <v>       0.40000000       0.40000000       0.20000000 </v>
   <v>       0.46666667       0.40000000       0.20000000 </v>
   <v>       0.46666667       0.46666667       0.20000000 </v>
   <v>       0.26666667       0.26666667       0.26666667 </v>
   <v>       0.33333333       0.26666667       0.26666667 </v>
   <v>       0.40000000       0.26666667       0.26666667 </v>
   <v>       0.46666667       0.26666667       0.26666667 </v>
   <v>       0.33333333       0.33333333       0.26666667 </v>
   <v>       0.40000000       0.33333333       0.26666667 </v>
   <v>       0.46666667       0.33333333       0.26666667 </v>
   <v>       0.40000000       0.40000000       0.26666667 </v>
   <v>       0.46666667       0.40000000       0.26666667 </v>
   <v>       0.46666667       0.46666667       0.26666667 </v>
   <v>       0.33333333       0.33333333       0.33333333 </v>
   <v>       0.40000000       0.33333333       0.33333333 </v>
   <v>       0.46666667       0.33333333       0.33333333 </v>
   <v>       0.40000000       0.40000000       0.33333333 </v>
   <v>       0.46666667       0.40000000       0.33333333 </v>
   <v>       0.46666667       0.46666667       0.33333333 </v>
   <v>       0.40000000       0.40000000       0.40000000 </v>
   <v>       0.46666667       0.40000000       0.40000000 </v>
   <v>       0.46666667       0.46666667       0.40000000 </v>
   <v>       0.46666667       0.46666667       0.46666667 </v>
  </varray>
  <varray name="weights" >
   <v>       0.00029630 </v>
   <v>       0.00177778 </v>
   <v>       0.00177778 </v>
   <v>       0.00177778 </v>
   <v>       0.00177778 </v>
   <v>       0.00177778 </v>
   <v>       0.00177778 </v>
   <v>       0.00177778 </v>
   <v>       0.00355556 </v>
   <v>       0.00711111 </v>
   <v>       0.00711111 </v>
   <v>       0.00711111 </v>
   <v>       0.00711111 </v>
   <v>       0.00711111 </v>
   <v>       0.00711111 </v>
   <v>       0.00355556 </v>
   <v>       0.00711111 </v>
   <v>       0.00711111 </v>
   <v>       0.00711111 </v>
   <v>       0.00711111 </v>
   <v>       0.00711111 </v>
   <v>       0.00355556 </v>
   <v>       0.00711111 </v>
   <v>       0.00711111 </v>
   <v>       0.00711111 </v>
   <v>       0.00711111 </v>
   <v>       0.00355556 </v>
   <v>       0.00711111 </v>
   <v>       0.00711111 </v>
   <v>       0.00711111 </v>
   <v>       0.00355556 </v>
   <v>       0.00711111 </v>
   <v>       0.00711111 </v>
   <v>       0.00355556 </v>
   <v>       0.00711111 </v>
   <v>       0.00355556 </v>
   <v>       0.00237037 </v>
   <v>       0.00711111 </v>
   <v>       0.00711111 </v>
   <v>       0.00711111 </v>
   <v>       0.00711111 </v>
   <v>       0.00711111 </v>
   <v>       0.00711111 </v>
   <v>       0.00711111 </v>
   <v>       0.01422222 </v>
   <v>       0.01422222 </v>
   <v>       0.01422222 </v>
   <v>       0.01422222 </v>
   <v>       0.01422222 </v>
   <v>       0.00711111 </v>
   <v>       0.01422222 </v>
   <v>       0.01422222 </v>
   <v>       0.01422222 </v>
   <v>       0.01422222 </v>
   <v>       0.00711111 </v>
   <v>       0.01422222 </v>
   <v>       0.01422222 </v>
   <v>       0.01422222 </v>
   <v>       0.00711111 </v>
   <v>       0.01422222 </v>
   <v>       0.01422222 </v>
   <v>       0.00711111 </v>
   <v>       0.01422222 </v>
   <v>       0.00711111 </v>
   <v>       0.00237037 </v>
   <v>       0.00711111 </v>
   <v>       0.00711111 </v>
   <v>       0.00711111 </v>
   <v>       0.00711111 </v>
   <v>       0.00711111 </v>
   <v>       0.00711111 </v>
   <v>       0.01422222 </v>
   <v>       0.01422222 </v>
   <v>       0.01422222 </v>
   <v>       0.01422222 </v>
   <v>       0.00711111 </v>
   <v>       0.01422222 </v>
   <v>       0.01422222 </v>
   <v>       0.01422222 </v>
   <v>       0.00711111 </v>
   <v>       0.01422222 </v>
   <v>       0.01422222 </v>
   <v>       0.00711111 </v>
   <v>       0.01422222 </v>
   <v>       0.00711111 </v>
   <v>       0.00237037 </v>
   <v>       0.00711111 </v>
   <v>       0.00711111 </v>
   <v>       0.00711111 </v>
   <v>       0.00711111 </v>
   <v>       0.00711111 </v>
   <v>       0.01422222 </v>
   <v>       0.01422222 </v>
   <v>       0.01422222 </v>
   <v>       0.00711111 </v>
   <v>       0.01422222 </v>
   <v>       0.01422222 </v>
   <v>       0.00711111 </v>
   <v>       0.01422222 </v>
   <v>       0.00711111 </v>
   <v>       0.00237037 </v>
   <v>       0.00711111 </v>
   <v>       0.00711111 </v>
   <v>       0.00711111 </v>
   <v>       0.00711111 </v>
   <v>       0.01422222 </v>
   <v>       0.01422222 </v>
   <v>       0.00711111 </v>
   <v>       0.01422222 </v>
   <v>       0.00711111 </v>
   <v>       0.00237037 </v>
   <v>       0.00711111 </v>
   <v>       0.00711111 </v>
   <v>       0.00711111 </v>
   <v>       0.01422222 </v>
   <v>       0.00711111 </v>
   <v>       0.00237037 </v>
   <v>       0.00711111 </v>
   <v>       0.00711111 </v>
   <v>       0.00237037 </v>
  </varray>
 </kpoints>
 <parameters>
  <separator name="general" >
   <i type="string" name="SYSTEM">unknown system</i>
   <i type="logical" name="LCOMPAT"> F  </i>
  </separator>
  <separator name="electronic" >
   <i type="string" name="PREC">accura</i>
   <i name="ENMAX">    520.00000000</i>
   <i name="ENAUG">    578.34200000</i>
   <i name="EDIFF">      0.00000100</i>
   <i type="int" name="IALGO">    68</i>
   <i type="int" name="IWAVPR">    11</i>
   <i type="int" name="NBANDS">    24</i>
   <i type="int" name="NBANDSLOW">    -1</i>
   <i type="int" name="NBANDSHIGH">    -1</i>
   <i name="NELECT">     28.00000000</i>
   <i type="int" name="TURBO">     0</i>
   <i type="int" name="IRESTART">     0</i>
   <i type="int" name="NREBOOT">     0</i>
   <i type="int" name="NMIN">     0</i>
   <i name="EREF">      0.00000000</i>
   <separator name="electronic smearing" >
    <i type="int" name="ISMEAR">     1</i>
    <i name="SIGMA">      0.20000000</i>
    <i name="KSPACING">      0.50000000</i>
    <i type="logical" name="KGAMMA"> T  </i>
    <i type="logical" name="KBLOWUP"> T  </i>
   </separator>
   <separator name="electronic projectors" >
    <i type="logical" name="LREAL"> F  </i>
    <v name="ROPT">      0.00000000</v>
    <i type="int" name="LMAXPAW">  -100</i>
    <i type="int" name="LMAXMIX">     4</i>
    <i type="logical" name="NLSPLINE"> F  </i>
   </separator>
   <separator name="electronic startup" >
    <i type="int" name="ISTART">     0</i>
    <i type="int" name="ICHARG">     2</i>
    <i type="int" name="INIWAV">     1</i>
   </separator>
   <separator name="electronic spin" >
    <i type="int" name="ISPIN">     2</i>
    <i type="logical" name="LNONCOLLINEAR"> F  </i>
    <v name="MAGMOM">      5.00000000      5.00000000</v>
    <i name="NUPDOWN">     -1.00000000</i>
    <i type="logical" name="LSORBIT"> F  </i>
    <v name="SAXIS">      0.00000000      0.00000000      1.00000000</v>
    <i type="logical" name="LSPIRAL"> F  </i>
    <v name="QSPIRAL">      0.00000000      0.00000000      0.00000000</v>
    <i type="logical" name="LZEROZ"> F  </i>
   </separator>
   <separator name="electronic exchange-correlation" >
    <i type="logical" name="LASPH"> T  </i>
    <i type="logical" name="LMETAGGA"> F  </i>
   </separator>
   <separator name="electronic convergence" >
    <i type="int" name="NELM">   100</i>
    <i type="int" name="NELMDL">    -5</i>
    <i type="int" name="NELMIN">     2</i>
    <i name="ENINI">    520.00000000</i>
    <separator name="electronic convergence detail" >
     <i type="logical" name="LDIAG"> T  </i>
     <i type="logical" name="LSUBROT"> F  </i>
     <i name="WEIMIN">      0.00100000</i>
     <i name="EBREAK">      0.00000001</i>
     <i name="DEPER">      0.30000000</i>
     <i type="int" name="NRMM">     4</i>
     <i name="TIME">      0.40000000</i>
    </separator>
   </separator>
   <separator name="electronic mixer" >
    <i name="AMIX">      0.40000000</i>
    <i name="BMIX">      1.00000000</i>
    <i name="AMIN">      0.10000000</i>
    <i name="AMIX_MAG">      1.60000000</i>
    <i name="BMIX_MAG">      1.00000000</i>
    <separator name="electronic mixer details" >
     <i type="int" name="IMIX">     4</i>
     <i type="logical" name="MIXFIRST"> F  </i>
     <i type="int" name="MAXMIX">   -45</i>
     <i name="WC">    100.00000000</i>
     <i type="int" name="INIMIX">     1</i>
     <i type="int" name="MIXPRE">     1</i>
     <i type="int" name="MREMOVE">     5</i>
    </separator>
   </separator>
   <separator name="electronic dipolcorrection" >
    <i type="logical" name="LDIPOL"> F  </i>
    <i type="logical" name="LMONO"> F  </i>
    <i type="int" name="IDIPOL">     0</i>
    <i name="EPSILON">      1.00000000</i>
    <v name="DIPOL">   -100.00000000   -100.00000000   -100.00000000</v>
    <i name="EFIELD">      0.00000000</i>
   </separator>
  </separator>
  <separator name="grids" >
   <i type="int" name="NGX">    24</i>
   <i type="int" name="NGY">    24</i>
   <i type="int" name="NGZ">    24</i>
   <i type="int" name="NGXF">    48</i>
   <i type="int" name="NGYF">    48</i>
   <i type="int" name="NGZF">    48</i>
   <i type="logical" name="ADDGRID"> F  </i>
  </separator>
  <separator name="ionic" >
   <i type="int" name="NSW">   500</i>
   <i type="int" name="IBRION">     2</i>
   <i type="int" name="MDALGO">     0</i>
   <i type="int" name="ISIF">     3</i>
   <i name="PSTRESS">      0.00000000</i>
   <i name="EDIFFG">     -0.02000000</i>
   <i type="int" name="NFREE">     1</i>
   <i name="POTIM">      0.50000000</i>
   <i name="SMASS">     -3.00000000</i>
   <i name="SCALEE">      1.00000000</i>
  </separator>
  <separator name="ionic md" >
   <i name="TEBEG">      0.00010000</i>
   <i name="TEEND">      0.00010000</i>
   <i type="int" name="NBLOCK">     1</i>
   <i type="int" name="KBLOCK">   500</i>
   <i type="int" name="NPACO">   256</i>
   <i name="APACO">     10.00000000</i>
  </separator>
  <separator name="symmetry" >
   <i type="int" name="ISYM">     2</i>
   <i name="SYMPREC">      0.00001000</i>
  </separator>
  <separator name="dos" >
   <i type="int" name="LORBIT">    11</i>
   <v name="RWIGS">     -1.00000000</v>
   <i type="int" name="NEDOS">   301</i>
   <i name="EMIN">     10.00000000</i>
   <i name="EMAX">    -10.00000000</i>
   <i name="EFERMI">      0.00000000</i>
  </separator>
  <separator name="writing" >
   <i type="int" name="NWRITE">     2</i>
   <i type="logical" name="LWAVE"> F  </i>
   <i type="logical" name="LDOWNSAMPLE"> F  </i>
   <i type="logical" name="LCHARG"> F  </i>
   <i type="logical" name="LPARD"> F  </i>
   <i type="logical" name="LVTOT"> F  </i>
   <i type="logical" name="LVHAR"> F  </i>
   <i type="logical" name="LELF"> F  </i>
   <i type="logical" name="LOPTICS"> F  </i>
   <v name="STM">      0.00000000      0.00000000      0.00000000      0.00000000      0.00000000      0.00000000      0.00000000</v>
  </separator>
  <separator name="performance" >
   <i type="int" name="NPAR">     8</i>
   <i type="int" name="NSIM">     4</i>
   <i type="int" name="NBLK">    -1</i>
   <i type="logical" name="LPLANE"> T  </i>
   <i type="logical" name="LSCALAPACK"> T  </i>
   <i type="logical" name="LSCAAWARE"> T  </i>
   <i type="logical" name="LSCALU"> F  </i>
   <i type="logical" name="LASYNC"> F  </i>
   <i type="logical" name="LORBITALREAL"> F  </i>
  </separator>
  <separator name="miscellaneous" >
   <i type="int" name="IDIOT">     3</i>
   <i type="int" name="PHON_NSTRUCT">    -1</i>
   <i type="logical" name="LMUSIC"> F  </i>
   <v name="POMASS">     55.84700000</v>
   <v name="DARWINR">      0.00000000</v>
   <v name="DARWINV">      1.00000000</v>
   <i type="logical" name="LCORR"> T  </i>
  </separator>
  <i type="logical" name="GGA_COMPAT"> T  </i>
  <i type="logical" name="LBERRY"> F  </i>
  <i type="int" name="ICORELEVEL">     0</i>
  <i type="logical" name="LDAU"> F  </i>
  <i type="int" name="I_CONSTRAINED_M">     0</i>
  <separator name="electronic exchange-correlation" >
   <i type="string" name="GGA">--</i>
   <i type="int" name="VOSKOWN">     0</i>
   <i type="logical" name="LHFCALC"> F  </i>
   <i type="string" name="PRECFOCK"></i>
   <i type="logical" name="LSYMGRAD"> F  </i>
   <i type="logical" name="LHFONE"> F  </i>
   <i type="logical" name="LRHFCALC"> F  </i>
   <i type="logical" name="LTHOMAS"> F  </i>
   <i type="logical" name="LMODELHF"> F  </i>
   <i type="logical" name="LFOCKACE"> F  </i>
   <i name="ENCUT4O">     -1.00000000</i>
   <i type="int" name="EXXOEP">     0</i>
   <i type="int" name="FOURORBIT">     0</i>
   <i name="AEXX">      0.00000000</i>
   <i name="HFALPHA">      0.00000000</i>
   <i name="MCALPHA">      0.00000000</i>
   <i name="ALDAX">      1.00000000</i>
   <i name="AGGAX">      1.00000000</i>
   <i name="ALDAC">      1.00000000</i>
   <i name="AGGAC">      1.00000000</i>
   <i type="int" name="NKREDX">     1</i>
   <i type="int" name="NKREDY">     1</i>
   <i type="int" name="NKREDZ">     1</i>
   <i type="logical" name="SHIFTRED"> F  </i>
   <i type="logical" name="ODDONLY"> F  </i>
   <i type="logical" name="EVENONLY"> F  </i>
   <i type="int" name="LMAXFOCK">     0</i>
   <i type="int" name="NMAXFOCKAE">     0</i>
   <i type="logical" name="LFOCKAEDFT"> F  </i>
   <i name="HFSCREEN">      0.00000000</i>
   <i name="HFSCREENC">      0.00000000</i>
   <i type="int" name="NBANDSGWLOW">     0</i>
  </separator>
  <separator name="vdW DFT" >
   <i type="logical" name="LUSE_VDW"> F  </i>
   <i type="int" name="IVDW_NL">     1</i>
   <i type="logical" name="LSPIN_VDW"> F  </i>
   <i name="Zab_VDW">     -0.84910000</i>
   <i name="PARAM1">      0.12340000</i>
   <i name="PARAM2">      1.00000000</i>
   <i name="PARAM3">      0.00000000</i>
  </separator>
  <separator name="model GW" >
   <i type="int" name="MODEL_GW">     0</i>
   <i name="MODEL_EPS0">      7.04046678</i>
   <i name="MODEL_ALPHA">      1.00000000</i>
  </separator>
  <separator name="linear response parameters" >
   <i type="logical" name="LEPSILON"> F  </i>
   <i type="logical" name="LRPA"> F  </i>
   <i type="logical" name="LNABLA"> F  </i>
   <i type="logical" name="LVEL"> F  </i>
   <i name="CSHIFT">      0.10000000</i>
   <i name="OMEGAMAX">     -1.00000000</i>
   <i name="DEG_THRESHOLD">      0.00200000</i>
   <i name="RTIME">     -0.10000000</i>
   <i name="WPLASMAI">      0.00000000</i>
   <v name="DFIELD">      0.00000000      0.00000000      0.00000000</v>
   <v name="WPLASMA">      0.00000000      0.00000000      0.00000000      0.00000000      0.00000000      0.00000000      0.00000000      0.00000000      0.00000000</v>
  </separator>
  <separator name="orbital magnetization" >
   <i type="logical" name="NUCIND"> F  </i>
   <v name="MAGPOS">      0.00000000      0.00000000      0.00000000</v>
   <i type="logical" name="LNICSALL"> T  </i>
   <i type="logical" name="ORBITALMAG"> F  </i>
   <i type="logical" name="LMAGBLOCH"> F  </i>
   <i type="logical" name="LCHIMAG"> F  </i>
   <i type="logical" name="LGAUGE"> T  </i>
   <i type="int" name="MAGATOM">     0</i>
   <v name="MAGDIPOL">      0.00000000      0.00000000      0.00000000</v>
   <v name="AVECCONST">      0.00000000      0.00000000      0.00000000</v>
  </separator>
  <separator name="response functions" >
   <i type="logical" name="LALL_IN_ONE"> F  </i>
   <i type="int" name="IALL_IN_ONE">    -1</i>
   <i type="int" name="NBANDS_WAVE">    -1</i>
   <i type="logical" name="LFINITE_TEMPERATURE"> F  </i>
   <i type="logical" name="LADDER"> F  </i>
   <i type="logical" name="LRPAFORCE"> F  </i>
   <i type="logical" name="LFXC"> F  </i>
   <i type="logical" name="LHARTREE"> T  </i>
   <i type="int" name="IBSE">     0</i>
   <v type="int" name="KPOINT">    -1     0     0     0</v>
   <i type="logical" name="LTCTC"> F  </i>
   <i type="logical" name="LTCTE"> F  </i>
   <i type="logical" name="LTETE"> F  </i>
   <i type="logical" name="LTRIPLET"> F  </i>
   <i type="logical" name="LFXCEPS"> F  </i>
   <i type="logical" name="LFXHEG"> F  </i>
   <i type="int" name="NATURALO">     2</i>
   <i type="logical" name="LHOLEGF"> F  </i>
   <i type="logical" name="L2ORDER"> F  </i>
   <i type="logical" name="LDMP1"> F  </i>
   <i type="logical" name="LMP2LT"> F  </i>
   <i type="logical" name="LSMP2LT"> F  </i>
   <i type="logical" name="LGWLF"> F  </i>
   <i name="ENCUTGW">     -1.60000002</i>
   <i name="ENCUTGWSOFT">     -1.60000002</i>
   <i name="ENCUTLF">     -1.00000000</i>
   <i type="logical" name="LESF_SPLINES"> F  </i>
   <i type="int" name="LMAXMP2">    -1</i>
   <i name="SCISSOR">      0.00000000</i>
   <i type="int" name="NOMEGA">     0</i>
   <i type="int" name="NOMEGAR">     0</i>
   <i type="int" name="NBANDSGW">    -1</i>
   <i type="int" name="NBANDSO">    -1</i>
   <i type="int" name="NBANDSV">    -1</i>
   <i type="int" name="NELMGW">     1</i>
   <i type="int" name="NELMHF">     1</i>
   <i type="int" name="DIM">     3</i>
   <i type="int" name="IESPILON">     4</i>
   <i type="int" name="ANTIRES">     0</i>
   <i name="OMEGAMAX">    -30.00000000</i>
   <i name="OMEGAMIN">    -30.00000000</i>
   <i name="OMEGATL">   -200.00000000</i>
   <i type="int" name="OMEGAGRID">     0</i>
   <i name="CSHIFT">     -0.10000000</i>
   <i type="logical" name="LSELFENERGY"> F  </i>
   <i type="logical" name="LSPECTRAL"> F  </i>
   <i type="logical" name="LSPECTRALGW"> F  </i>
   <i type="logical" name="LSINGLES"> F  </i>
   <i type="logical" name="LFERMIGW"> F  </i>
   <i type="logical" name="ODDONLYGW"> F  </i>
   <i type="logical" name="EVENONLYGW"> F  </i>
   <i type="int" name="NKREDLFX">     1</i>
   <i type="int" name="NKREDLFY">     1</i>
   <i type="int" name="NKREDLFZ">     1</i>
   <i type="int" name="MAXMEM">  2800</i>
   <i type="int" name="TELESCOPE">     0</i>
   <i type="int" name="NTAUPAR">    -1</i>
   <i type="int" name="NOMEGAPAR">    -1</i>
   <i name="DAMP_NEWTON">      0.80000001</i>
   <i name="LAMBDA">      1.00000000</i>
  </separator>
  <separator name="External order field" >
   <i name="OFIELD_KAPPA">      0.00000000</i>
   <v name="OFIELD_K">      0.00000000      0.00000000      0.00000000</v>
   <i name="OFIELD_Q6_NEAR">      0.00000000</i>
   <i name="OFIELD_Q6_FAR">      0.00000000</i>
   <i name="OFIELD_A">      0.00000000</i>
  </separator>
  <separator name="optional k-points parameters" >
   <i type="int" name="KPOINTS_OPT_MODE">     1</i>
   <i type="logical" name="LKPOINTS_OPT"> F  </i>
  </separator>
  <separator name="solvation model" >
   <i type="logical" name="LSOL"> F  </i>
  </separator>
 </parameters>
 <atominfo>
  <atoms>       2 </atoms>
  <types>       1 </types>
  <array name="atoms" >
   <dimension dim="1">ion</dimension>
   <field type="string">element</field>
   <field type="int">atomtype</field>
   <set>
    <rc><c>Fe</c><c>   1</c></rc>
    <rc><c>Fe</c><c>   1</c></rc>
   </set>
  </array>
  <array name="atomtypes" >
   <dimension dim="1">type</dimension>
   <field type="int">atomspertype</field>
   <field type="string">element</field>
   <field>mass</field>
   <field>valence</field>
   <field type="string">pseudopotential</field>
   <set>
    <rc><c>   2</c><c>Fe</c><c>     55.84700000</c><c>     14.00000000</c><c>  PAW_PBE Fe_pv 02Aug2007               </c></rc>
   </set>
  </array>
 </atominfo>
 <structure name="initialpos" >
  <crystal>
   <varray name="basis" >
    <v>       2.86303550       0.00000000       0.00000000 </v>
    <v>       0.00000000       2.86303550       0.00000000 </v>
    <v>       0.00000000       0.00000000       2.86303550 </v>
   </varray>
   <i name="volume">     23.46822259 </i>
   <varray name="rec_basis" >
    <v>       0.34927964      -0.00000000       0.00000000 </v>
    <v>       0.00000000       0.34927964       0.00000000 </v>
    <v>      -0.00000000      -0.00000000       0.34927964 </v>
   </varray>
  </crystal>
  <varray name="positions" >
   <v>       0.00000000       0.00000000       0.00000000 </v>
   <v>       0.50000000       0.50000000       0.50000000 </v>
  </varray>
 </structure>
 <calculation>
  <scstep>
   <time name="dav">    1.26    1.26</time>
   <time name="total">    1.63    1.63</time>
   <energy>
    <i name="alphaZ">    213.64162937 </i>
    <i name="ewald">  -3587.52825014 </i>
    <i name="hartreedc">  -1178.61548391 </i>
    <i name="XCdc">    147.35929341 </i>
    <i name="pawpsdc">   3997.93860218 </i>
    <i name="pawaedc">  -4177.34792201 </i>
    <i name="eentropy">      0.00201454 </i>
    <i name="bandstr">    -52.95454192 </i>
    <i name="atom">   4914.83548677 </i>
    <i name="e_fr_energy">    277.33082829 </i>
    <i name="e_wo_entrp">    277.32881375 </i>
    <i name="e_0_energy">    277.33015677 </i>
   </energy>
  </scstep>
  <scstep>
   <time name="dav">    1.20    1.21</time>
   <time name="total">    1.20    1.21</time>
   <energy>
    <i name="e_fr_energy">     -3.01977363 </i>
    <i name="e_wo_entrp">     -3.02010186 </i>
    <i name="e_0_energy">     -3.01988304 </i>
   </energy>
  </scstep>
  <scstep>
   <time name="dav">    1.15    1.16</time>
   <time name="total">    1.16    1.16</time>
   <energy>
    <i name="e_fr_energy">    -16.22105916 </i>
    <i name="e_wo_entrp">    -16.22113943 </i>
    <i name="e_0_energy">    -16.22108592 </i>
   </energy>
  </scstep>
  <scstep>
   <time name="dav">    0.83    0.83</time>
   <time name="total">    0.83    0.83</time>
   <energy>
    <i name="e_fr_energy">    -16.35726606 </i>
    <i name="e_wo_entrp">    -16.35733445 </i>
    <i name="e_0_energy">    -16.35728886 </i>
   </energy>
  </scstep>
  <scstep>
   <time name="dav">    0.80    0.80</time>
   <time name="total">    0.82    0.82</time>
   <energy>
    <i name="e_fr_energy">    -16.35979098 </i>
    <i name="e_wo_entrp">    -16.35985934 </i>
    <i name="e_0_energy">    -16.35981377 </i>
   </energy>
  </scstep>
  <scstep>
   <time name="diag">    0.29    0.29</time>
   <time name="diis">    0.13    0.13</time>
   <time name="orth">    0.04    0.04</time>
   <time name="total">    0.78    0.78</time>
   <energy>
    <i name="e_fr_energy">    -16.48968394 </i>
    <i name="e_wo_entrp">    -16.49051238 </i>
    <i name="e_0_energy">    -16.48996009 </i>
   </energy>
  </scstep>
  <scstep>
   <time name="diag">    0.29    0.29</time>
   <time name="diis">    0.13    0.13</time>
   <time name="orth">    0.04    0.04</time>
   <time name="total">    0.78    0.78</time>
   <energy>
    <i name="e_fr_energy">    -16.52426488 </i>
    <i name="e_wo_entrp">    -16.52246976 </i>
    <i name="e_0_energy">    -16.52366650 </i>
   </energy>
  </scstep>
  <scstep>
   <time name="diag">    0.30    0.30</time>
   <time name="diis">    0.12    0.12</time>
   <time name="orth">    0.04    0.04</time>
   <time name="total">    0.78    0.78</time>
   <energy>
    <i name="e_fr_energy">    -16.53291718 </i>
    <i name="e_wo_entrp">    -16.53064876 </i>
    <i name="e_0_energy">    -16.53216104 </i>
   </energy>
  </scstep>
  <scstep>
   <time name="diag">    0.28    0.28</time>
   <time name="diis">    0.11    0.11</time>
   <time name="orth">    0.04    0.04</time>
   <time name="total">    0.75    0.75</time>
   <energy>
    <i name="e_fr_energy">    -16.52483247 </i>
    <i name="e_wo_entrp">    -16.52215508 </i>
    <i name="e_0_energy">    -16.52394001 </i>
   </energy>
  </scstep>
  <scstep>
   <time name="diag">    0.28    0.28</time>
   <time name="diis">    0.12    0.12</time>
   <time name="orth">    0.04    0.04</time>
   <time name="total">    0.78    0.78</time>
   <energy>
    <i name="e_fr_energy">    -16.52447732 </i>
    <i name="e_wo_entrp">    -16.52180287 </i>
    <i name="e_0_energy">    -16.52358584 </i>
   </energy>
  </scstep>
  <scstep>
   <time name="diag">    0.28    0.29</time>
   <time name="diis">    0.13    0.13</time>
   <time name="orth">    0.04    0.04</time>
   <time name="total">    0.77    0.77</time>
   <energy>
    <i name="e_fr_energy">    -16.52455903 </i>
    <i name="e_wo_entrp">    -16.52189624 </i>
    <i name="e_0_energy">    -16.52367143 </i>
   </energy>
  </scstep>
  <scstep>
   <time name="diag">    0.30    0.30</time>
   <time name="diis">    0.14    0.14</time>
   <time name="orth">    0.04    0.04</time>
   <time name="total">    0.79    0.79</time>
   <energy>
    <i name="e_fr_energy">    -16.52456197 </i>
    <i name="e_wo_entrp">    -16.52190022 </i>
    <i name="e_0_energy">    -16.52367472 </i>
   </energy>
  </scstep>
  <scstep>
   <time name="diag">    0.33    0.33</time>
   <time name="diis">    0.12    0.12</time>
   <time name="orth">    0.04    0.04</time>
   <time name="total">    0.80    0.80</time>
   <energy>
    <i name="e_fr_energy">    -16.52455978 </i>
    <i name="e_wo_entrp">    -16.52189464 </i>
    <i name="e_0_energy">    -16.52367140 </i>
   </energy>
  </scstep>
  <scstep>
   <time name="diag">    0.28    0.28</time>
   <time name="diis">    0.08    0.08</time>
   <time name="orth">    0.04    0.04</time>
   <time name="total">    0.71    0.71</time>
   <energy>
    <i name="alphaZ">    213.64162937 </i>
    <i name="ewald">  -3587.52825014 </i>
    <i name="hartreedc">  -1105.93504253 </i>
    <i name="XCdc">    140.74350602 </i>
    <i name="pawpsdc">   4347.82151317 </i>
    <i name="pawaedc">  -4532.96884025 </i>
    <i name="eentropy">     -0.00266477 </i>
    <i name="bandstr">   -407.13189752 </i>
    <i name="atom">   4914.83548677 </i>
    <i name="e_fr_energy">    -16.52455989 </i>
    <i name="e_wo_entrp">    -16.52189511 </i>
    <i name="e_0_energy">    -16.52367163 </i>
   </energy>
  </scstep>
  <structure>
   <crystal>
    <varray name="basis" >
     <v>       2.86303550       0.00000000       0.00000000 </v>
     <v>       0.00000000       2.86303550       0.00000000 </v>
     <v>       0.00000000       0.00000000       2.86303550 </v>
    </varray>
    <i name="volume">     23.46822259 </i>
    <varray name="rec_basis" >
     <v>       0.34927964      -0.00000000       0.00000000 </v>
     <v>       0.00000000       0.34927964       0.00000000 </v>
     <v>      -0.00000000      -0.00000000       0.34927964 </v>
    </varray>
   </crystal>
   <varray name="positions" >
    <v>       0.00000000       0.00000000       0.00000000 </v>
    <v>       0.50000000       0.50000000       0.50000000 </v>
   </varray>
  </structure>
  <varray name="forces" >
   <v>      -0.00000000      -0.00000000       0.00000000 </v>
   <v>       0.00000000       0.00000000      -0.00000000 </v>
  </varray>
  <varray name="stress" >
   <v>     -60.83551070      -0.00000000      -0.00000000 </v>
   <v>      -0.00000000     -60.83551070      -0.00000000 </v>
   <v>       0.00000000       0.00000000     -60.83551070 </v>
  </varray>
  <energy>
   <i name="e_fr_energy">    -16.52455989 </i>
   <i name="e_wo_entrp">    -16.52189511 </i>
   <i name="e_0_energy">    -16.52367163 </i>
  </energy>
  <time name="totalsc">   13.30   13.34</time>
 </calculation>
 <calculation>
  <scstep>
   <time name="dav">    0.78    0.78</time>
   <time name="total">    1.09    1.09</time>
   <energy>
    <i name="alphaZ">    228.03216438 </i>
    <i name="ewald">  -3666.33438798 </i>
    <i name="hartreedc">  -1130.23202534 </i>
    <i name="XCdc">    144.20792106 </i>
    <i name="pawpsdc">   4347.81723795 </i>
    <i name="pawaedc">  -4532.96201234 </i>
    <i name="eentropy">      0.00068778 </i>
    <i name="bandstr">   -325.10613673 </i>
    <i name="atom">   4914.83548677 </i>
    <i name="e_fr_energy">    -19.74106446 </i>
    <i name="e_wo_entrp">    -19.74175223 </i>
    <i name="e_0_energy">    -19.74129372 </i>
   </energy>
  </scstep>
  <scstep>
   <time name="diag">    0.30    0.30</time>
   <time name="diis">    0.12    0.12</time>
   <time name="orth">    0.04    0.04</time>
   <time name="total">    0.78    0.78</time>
   <energy>
    <i name="e_fr_energy">    -16.80124500 </i>
    <i name="e_wo_entrp">    -16.79865090 </i>
    <i name="e_0_energy">    -16.80038030 </i>
   </energy>
  </scstep>
  <scstep>
   <time name="diag">    0.28    0.28</time>
   <time name="diis">    0.14    0.14</time>
   <time name="orth">    0.04    0.04</time>
   <time name="total">    0.78    0.78</time>
   <energy>
    <i name="e_fr_energy">    -16.57196329 </i>
    <i name="e_wo_entrp">    -16.56864220 </i>
    <i name="e_0_energy">    -16.57085626 </i>
   </energy>
  </scstep>
  <scstep>
   <time name="diag">    0.28    0.28</time>
   <time name="diis">    0.12    0.12</time>
   <time name="orth">    0.04    0.04</time>
   <time name="total">    0.76    0.76</time>
   <energy>
    <i name="e_fr_energy">    -16.54689288 </i>
    <i name="e_wo_entrp">    -16.54387089 </i>
    <i name="e_0_energy">    -16.54588555 </i>
   </energy>
  </scstep>
  <scstep>
   <time name="diag">    0.29    0.29</time>
   <time name="diis">    0.13    0.13</time>
   <time name="orth">    0.04    0.04</time>
   <time name="total">    0.77    0.77</time>
   <energy>
    <i name="e_fr_energy">    -16.52556061 </i>
    <i name="e_wo_entrp">    -16.52304983 </i>
    <i name="e_0_energy">    -16.52472368 </i>
   </energy>
  </scstep>
  <scstep>
   <time name="diag">    0.30    0.30</time>
   <time name="diis">    0.13    0.13</time>
   <time name="orth">    0.04    0.04</time>
   <time name="total">    0.78    0.78</time>
   <energy>
    <i name="e_fr_energy">    -16.52573344 </i>
    <i name="e_wo_entrp">    -16.52308682 </i>
    <i name="e_0_energy">    -16.52485124 </i>
   </energy>
  </scstep>
  <scstep>
   <time name="diag">    0.30    0.30</time>
   <time name="diis">    0.12    0.12</time>
   <time name="orth">    0.04    0.04</time>
   <time name="total">    0.78    0.78</time>
   <energy>
    <i name="e_fr_energy">    -16.52576485 </i>
    <i name="e_wo_entrp">    -16.52305778 </i>
    <i name="e_0_energy">    -16.52486249 </i>
   </energy>
  </scstep>
  <scstep>
   <time name="diag">    0.32    0.33</time>
   <time name="diis">    0.14    0.14</time>
   <time name="orth">    0.06    0.06</time>
   <time name="total">    0.84    0.84</time>
   <energy>
    <i name="e_fr_energy">    -16.52576680 </i>
    <i name="e_wo_entrp">    -16.52306117 </i>
    <i name="e_0_energy">    -16.52486492 </i>
   </energy>
  </scstep>
  <scstep>
   <time name="diag">    0.29    0.29</time>
   <time name="diis">    0.11    0.11</time>
   <time name="orth">    0.04    0.04</time>
   <time name="total">    0.76    0.76</time>
   <energy>
    <i name="e_fr_energy">    -16.52575681 </i>
    <i name="e_wo_entrp">    -16.52305988 </i>
    <i name="e_0_energy">    -16.52485783 </i>
   </energy>
  </scstep>
  <scstep>
   <time name="diag">    0.29    0.29</time>
   <time name="diis">    0.10    0.10</time>
   <time name="orth">    0.04    0.04</time>
   <time name="total">    0.73    0.73</time>
   <energy>
    <i name="alphaZ">    228.03216438 </i>
    <i name="ewald">  -3666.33438798 </i>
    <i name="hartreedc">  -1063.18855807 </i>
    <i name="XCdc">    141.07751353 </i>
    <i name="pawpsdc">   4426.17954897 </i>
    <i name="pawaedc">  -4611.86908158 </i>
    <i name="eentropy">     -0.00269914 </i>
    <i name="bandstr">   -385.25574366 </i>
    <i name="atom">   4914.83548677 </i>
    <i name="e_fr_energy">    -16.52575678 </i>
    <i name="e_wo_entrp">    -16.52305764 </i>
    <i name="e_0_energy">    -16.52485707 </i>
   </energy>
  </scstep>
  <structure>
   <crystal>
    <varray name="basis" >
     <v>       2.80149589      -0.00000000       0.00000000 </v>
     <v>       0.00000000       2.80149589       0.00000000 </v>
     <v>       0.00000000       0.00000000       2.80149589 </v>
    </varray>
    <i name="volume">     21.98720222 </i>
    <varray name="rec_basis" >
     <v>       0.35695216      -0.00000000      -0.00000000 </v>
     <v>       0.00000000       0.35695216      -0.00000000 </v>
     <v>      -0.00000000      -0.00000000       0.35695216 </v>
    </varray>
   </crystal>
   <varray name="positions" >
    <v>      -0.00000000      -0.00000000       0.00000000 </v>
    <v>       0.50000000       0.50000000       0.50000000 </v>
   </varray>
  </structure>
  <varray name="forces" >
   <v>      -0.00000000      -0.00000000      -0.00000000 </v>
   <v>       0.00000000       0.00000000       0.00000000 </v>
  </varray>
  <varray name="stress" >
   <v>      66.09616818       0.00000000       0.00000000 </v>
   <v>       0.00000000      66.09616818       0.00000000 </v>
   <v>       0.00000000       0.00000000      66.09616818 </v>
  </varray>
  <energy>
   <i name="e_fr_energy">    -16.52575678 </i>
   <i name="e_wo_entrp">    -16.52305764 </i>
   <i name="e_0_energy">    -16.52485707 </i>
  </energy>
  <time name="totalsc">    8.79    8.81</time>
 </calculation>
 <calculation>
  <scstep>
   <time name="dav">    0.82    0.83</time>
   <time name="total">    1.14    1.14</time>
   <energy>
    <i name="alphaZ">    220.93501493 </i>
    <i name="ewald">  -3627.89647804 </i>
    <i name="hartreedc">  -1052.04342619 </i>
    <i name="XCdc">    139.42655776 </i>
    <i name="pawpsdc">   4425.95540341 </i>
    <i name="pawaedc">  -4611.64298817 </i>
    <i name="eentropy">     -0.00138117 </i>
    <i name="bandstr">   -426.92153318 </i>
    <i name="atom">   4914.83548677 </i>
    <i name="e_fr_energy">    -17.35334389 </i>
    <i name="e_wo_entrp">    -17.35196272 </i>
    <i name="e_0_energy">    -17.35288350 </i>
   </energy>
  </scstep>
  <scstep>
   <time name="diag">    0.29    0.29</time>
   <time name="diis">    0.14    0.14</time>
   <time name="orth">    0.04    0.04</time>
   <time name="total">    0.77    0.78</time>
   <energy>
    <i name="e_fr_energy">    -16.66806790 </i>
    <i name="e_wo_entrp">    -16.66608711 </i>
    <i name="e_0_energy">    -16.66740763 </i>
   </energy>
  </scstep>
  <scstep>
   <time name="diag">    0.29    0.29</time>
   <time name="diis">    0.13    0.13</time>
   <time name="orth">    0.04    0.04</time>
   <time name="total">    0.77    0.77</time>
   <energy>
    <i name="e_fr_energy">    -16.55154388 </i>
    <i name="e_wo_entrp">    -16.54917806 </i>
    <i name="e_0_energy">    -16.55075527 </i>
   </energy>
  </scstep>
  <scstep>
   <time name="diag">    0.29    0.29</time>
   <time name="diis">    0.13    0.13</time>
   <time name="orth">    0.04    0.04</time>
   <time name="total">    0.77    0.77</time>
   <energy>
    <i name="e_fr_energy">    -16.54510813 </i>
    <i name="e_wo_entrp">    -16.54262589 </i>
    <i name="e_0_energy">    -16.54428072 </i>
   </energy>
  </scstep>
  <scstep>
   <time name="diag">    0.31    0.31</time>
   <time name="diis">    0.13    0.13</time>
   <time name="orth">    0.04    0.04</time>
   <time name="total">    0.79    0.79</time>
   <energy>
    <i name="e_fr_energy">    -16.53976524 </i>
    <i name="e_wo_entrp">    -16.53733852 </i>
    <i name="e_0_energy">    -16.53895633 </i>
   </energy>
  </scstep>
  <scstep>
   <time name="diag">    0.31    0.31</time>
   <time name="diis">    0.13    0.13</time>
   <time name="orth">    0.04    0.04</time>
   <time name="total">    0.79    0.79</time>
   <energy>
    <i name="e_fr_energy">    -16.53986827 </i>
    <i name="e_wo_entrp">    -16.53745928 </i>
    <i name="e_0_energy">    -16.53906527 </i>
   </energy>
  </scstep>
  <scstep>
   <time name="diag">    0.29    0.29</time>
   <time name="diis">    0.13    0.13</time>
   <time name="orth">    0.04    0.04</time>
   <time name="total">    0.79    0.79</time>
   <energy>
    <i name="e_fr_energy">    -16.53987961 </i>
    <i name="e_wo_entrp">    -16.53746660 </i>
    <i name="e_0_energy">    -16.53907527 </i>
   </energy>
  </scstep>
  <scstep>
   <time name="diag">    0.29    0.29</time>
   <time name="diis">    0.13    0.13</time>
   <time name="orth">    0.04    0.04</time>
   <time name="total">    0.77    0.77</time>
   <energy>
    <i name="e_fr_energy">    -16.53988579 </i>
    <i name="e_wo_entrp">    -16.53747459 </i>
    <i name="e_0_energy">    -16.53908206 </i>
   </energy>
  </scstep>
  <scstep>
   <time name="diag">    0.29    0.29</time>
   <time name="diis">    0.10    0.10</time>
   <time name="orth">    0.04    0.04</time>
   <time name="total">    0.74    0.75</time>
   <energy>
    <i name="e_fr_energy">    -16.53988704 </i>
    <i name="e_wo_entrp">    -16.53747431 </i>
    <i name="e_0_energy">    -16.53908279 </i>
   </energy>
  </scstep>
  <scstep>
   <time name="diag">    0.31    0.31</time>
   <time name="diis">    0.08    0.08</time>
   <time name="orth">    0.04    0.04</time>
   <time name="total">    0.73    0.73</time>
   <energy>
    <i name="alphaZ">    220.93501493 </i>
    <i name="ewald">  -3627.89647804 </i>
    <i name="hartreedc">  -1083.81888978 </i>
    <i name="XCdc">    140.90639352 </i>
    <i name="pawpsdc">   4385.80453628 </i>
    <i name="pawaedc">  -4571.22635719 </i>
    <i name="eentropy">     -0.00241393 </i>
    <i name="bandstr">   -396.07718025 </i>
    <i name="atom">   4914.83548677 </i>
    <i name="e_fr_energy">    -16.53988769 </i>
    <i name="e_wo_entrp">    -16.53747376 </i>
    <i name="e_0_energy">    -16.53908305 </i>
   </energy>
  </scstep>
  <structure>
   <crystal>
    <varray name="basis" >
     <v>       2.83117801      -0.00000000       0.00000000 </v>
     <v>       0.00000000       2.83117801       0.00000000 </v>
     <v>       0.00000000       0.00000000       2.83117801 </v>
    </varray>
    <i name="volume">     22.69350249 </i>
    <varray name="rec_basis" >
     <v>       0.35320986      -0.00000000      -0.00000000 </v>
     <v>       0.00000000       0.35320986      -0.00000000 </v>
     <v>      -0.00000000      -0.00000000       0.35320986 </v>
    </varray>
   </crystal>
   <varray name="positions" >
    <v>      -0.00000000      -0.00000000       0.00000000 </v>
    <v>       0.50000000       0.50000000       0.50000000 </v>
   </varray>
  </structure>
  <varray name="forces" >
   <v>      -0.00000000      -0.00000000       0.00000000 </v>
   <v>       0.00000000       0.00000000      -0.00000000 </v>
  </varray>
  <varray name="stress" >
   <v>      -0.47671734       0.00000000      -0.00000000 </v>
   <v>       0.00000000      -0.47671734       0.00000000 </v>
   <v>      -0.00000000       0.00000000      -0.47671734 </v>
  </varray>
  <energy>
   <i name="e_fr_energy">    -16.53988769 </i>
   <i name="e_wo_entrp">    -16.53747376 </i>
   <i name="e_0_energy">    -16.53908305 </i>
  </energy>
  <time name="totalsc">    8.73    8.75</time>
  <eigenvalues>
   <array>
    <dimension dim="1">band</dimension>
    <dimension dim="2">kpoint</dimension>
    <dimension dim="3">spin</dimension>
    <field>eigene</field>
    <field>occ</field>
    <set>
     <set comment="spin 1">
      <set comment="kpoint 1">
       <r>  -44.4232    1.0000 </r>
       <r>  -44.4232    1.0000 </r>
       <r>  -44.4232    1.0000 </r>
       <r>  -44.1274    1.0000 </r>
       <r>  -44.1274    1.0000 </r>
       <r>  -44.1274    1.0000 </r>
       <r>    1.3186    1.0000 </r>
       <r>    4.9279    1.0000 </r>
       <r>    4.9279    1.0000 </r>
       <r>    7.4880    1.0000 </r>
       <r>    7.4880    1.0000 </r>
       <r>    7.4880    1.0000 </r>
       <r>    8.7015    1.0000 </r>
       <r>    8.7015    1.0000 </r>
       <r>    9.9187    0.0542 </r>
       <r>    9.9187    0.0542 </r>
       <r>    9.9187    0.0542 </r>
       <r>   19.6747    0.0000 </r>
       <r>   19.6747    0.0000 </r>
       <r>   19.6747    0.0000 </r>
       <r>   25.5383    0.0000 </r>
       <r>   25.5383    0.0000 </r>
       <r>   30.5582    0.0000 </r>
       <r>   34.1611    0.0000 </r>
      </set>
      <set comment="kpoint 2">
       <r>  -44.4227    1.0000 </r>
       <r>  -44.4198    1.0000 </r>
       <r>  -44.4198    1.0000 </r>
       <r>  -44.1335    1.0000 </r>
       <r>  -44.1304    1.0000 </r>
       <r>  -44.1304    1.0000 </r>
       <r>    1.4112    1.0000 </r>
       <r>    4.9673    1.0000 </r>
       <r>    4.9690    1.0000 </r>
       <r>    7.4871    1.0000 </r>
       <r>    7.4871    1.0000 </r>
       <r>    7.5132    1.0000 </r>
       <r>    8.6598    1.0000 </r>
       <r>    8.7179    1.0000 </r>
       <r>    9.8395    0.2838 </r>
       <r>    9.8395    0.2838 </r>
       <r>    9.8908    0.1180 </r>
       <r>   19.0154    0.0000 </r>
       <r>   19.8527    0.0000 </r>
       <r>   19.8527    0.0000 </r>
       <r>   25.5626    0.0000 </r>
       <r>   26.0232    0.0000 </r>
       <r>   30.8650    0.0000 </r>
       <r>   33.6440    0.0000 </r>
      </set>
      <set comment="kpoint 3">
       <r>  -44.4211    1.0000 </r>
       <r>  -44.4097    1.0000 </r>
       <r>  -44.4097    1.0000 </r>
       <r>  -44.1511    1.0000 </r>
       <r>  -44.1394    1.0000 </r>
       <r>  -44.1394    1.0000 </r>
       <r>    1.6853    1.0000 </r>
       <r>    5.0839    1.0000 </r>
       <r>    5.0847    1.0000 </r>
       <r>    7.4869    1.0000 </r>
       <r>    7.4869    1.0000 </r>
       <r>    7.5879    1.0000 </r>
       <r>    8.5363    1.0000 </r>
       <r>    8.7659    1.0000 </r>
       <r>    9.6218    0.9957 </r>
       <r>    9.6218    0.9957 </r>
       <r>    9.8085    0.4071 </r>
       <r>   17.5566    0.0000 </r>
       <r>   20.3658    0.0000 </r>
       <r>   20.3658    0.0000 </r>
       <r>   25.6370    0.0000 </r>
       <r>   26.8580    0.0000 </r>
       <r>   31.8980    0.0000 </r>
       <r>   32.5207    0.0000 </r>
      </set>
      <set comment="kpoint 4">
       <r>  -44.4173    1.0000 </r>
       <r>  -44.3934    1.0000 </r>
       <r>  -44.3934    1.0000 </r>
       <r>  -44.1785    1.0000 </r>
       <r>  -44.1541    1.0000 </r>
       <r>  -44.1541    1.0000 </r>
       <r>    2.1291    1.0000 </r>
       <r>    5.2518    1.0000 </r>
       <r>    5.2737    1.0000 </r>
       <r>    7.4948    1.0000 </r>
       <r>    7.4949    1.0000 </r>
       <r>    7.7094    1.0000 </r>
       <r>    8.3360    1.0000 </r>
       <r>    8.8431    1.0000 </r>
       <r>    9.3130    1.0021 </r>
       <r>    9.3130    1.0021 </r>
       <r>    9.6758    0.8978 </r>
       <r>   15.8749    0.0000 </r>
       <r>   21.1631    0.0000 </r>
       <r>   21.1631    0.0000 </r>
       <r>   25.7661    0.0000 </r>
       <r>   27.4467    0.0000 </r>
       <r>   31.3015    0.0000 </r>
       <r>   33.3235    0.0000 </r>
      </set>
      <set comment="kpoint 5">
       <r>  -44.4100    1.0000 </r>
       <r>  -44.3719    1.0000 </r>
       <r>  -44.3719    1.0000 </r>
       <r>  -44.2127    1.0000 </r>
       <r>  -44.1739    1.0000 </r>
       <r>  -44.1739    1.0000 </r>
       <r>    2.7203    1.0000 </r>
       <r>    5.4298    1.0000 </r>
       <r>    5.5299    1.0000 </r>
       <r>    7.5218    1.0000 </r>
       <r>    7.5218    1.0000 </r>
       <r>    7.8729    1.0000 </r>
       <r>    8.0672    1.0000 </r>
       <r>    8.9500    1.0000 </r>
       <r>    8.9651    1.0000 </r>
       <r>    8.9651    1.0000 </r>
       <r>    9.4993    1.0304 </r>
       <r>   14.2107   -0.0000 </r>
       <r>   22.1887    0.0000 </r>
       <r>   22.1887    0.0000 </r>
       <r>   25.9580    0.0000 </r>
       <r>   27.8218    0.0000 </r>
       <r>   30.1625    0.0000 </r>
       <r>   32.2175    0.0000 </r>
      </set>
      <set comment="kpoint 6">
       <r>  -44.3979    1.0000 </r>
       <r>  -44.3460    1.0000 </r>
       <r>  -44.3460    1.0000 </r>
       <r>  -44.2507    1.0000 </r>
       <r>  -44.1980    1.0000 </r>
       <r>  -44.1980    1.0000 </r>
       <r>    3.4199    1.0000 </r>
       <r>    5.5581    1.0000 </r>
       <r>    5.8425    1.0000 </r>
       <r>    7.5798    1.0000 </r>
       <r>    7.5798    1.0000 </r>
       <r>    7.7417    1.0000 </r>
       <r>    8.0723    1.0000 </r>
       <r>    8.6200    1.0000 </r>
       <r>    8.6200    1.0000 </r>
       <r>    9.0980    1.0000 </r>
       <r>    9.2876    1.0012 </r>
       <r>   12.6804   -0.0000 </r>
       <r>   23.3921    0.0000 </r>
       <r>   23.3921    0.0000 </r>
       <r>   26.2233    0.0000 </r>
       <r>   28.1627    0.0000 </r>
       <r>   29.1602    0.0000 </r>
       <r>   30.7996    0.0000 </r>
      </set>
      <set comment="kpoint 7">
       <r>  -44.3798    1.0000 </r>
       <r>  -44.3171    1.0000 </r>
       <r>  -44.3171    1.0000 </r>
       <r>  -44.2889    1.0000 </r>
       <r>  -44.2256    1.0000 </r>
       <r>  -44.2256    1.0000 </r>
       <r>    4.1618    1.0000 </r>
       <r>    5.5540    1.0000 </r>
       <r>    6.1992    1.0000 </r>
       <r>    7.3746    1.0000 </r>
       <r>    7.6805    1.0000 </r>
       <r>    7.6805    1.0000 </r>
       <r>    8.2995    1.0000 </r>
       <r>    8.3065    1.0000 </r>
       <r>    8.3065    1.0000 </r>
       <r>    9.0507    1.0000 </r>
       <r>    9.3250    1.0026 </r>
       <r>   11.3737   -0.0000 </r>
       <r>   24.7334    0.0000 </r>
       <r>   24.7334    0.0000 </r>
       <r>   26.5753    0.0000 </r>
       <r>   28.3081    0.0000 </r>
       <r>   28.5947    0.0000 </r>
       <r>   29.2592    0.0000 </r>
      </set>
      <set comment="kpoint 8">
       <r>  -44.3552    1.0000 </r>
       <r>  -44.3245    1.0000 </r>
       <r>  -44.2864    1.0000 </r>
       <r>  -44.2864    1.0000 </r>
       <r>  -44.2555    1.0000 </r>
       <r>  -44.2555    1.0000 </r>
       <r>    4.8403    1.0000 </r>
       <r>    5.3276    1.0000 </r>
       <r>    6.5850    1.0000 </r>
       <r>    6.9829    1.0000 </r>
       <r>    7.8327    1.0000 </r>
       <r>    7.8327    1.0000 </r>
       <r>    8.0415    1.0000 </r>
       <r>    8.0415    1.0000 </r>
       <r>    8.5454    1.0000 </r>
       <r>    8.7995    1.0000 </r>
       <r>    9.7126    0.7897 </r>
       <r>   10.3735   -0.0001 </r>
       <r>   26.1799    0.0000 </r>
       <r>   26.1799    0.0000 </r>
       <r>   27.0294    0.0000 </r>
       <r>   27.6018    0.0000 </r>
       <r>   27.7006    0.0000 </r>
       <r>   27.7006    0.0000 </r>
      </set>
      <set comment="kpoint 9">
       <r>  -44.4282    1.0000 </r>
       <r>  -44.4164    1.0000 </r>
       <r>  -44.4106    1.0000 </r>
       <r>  -44.1455    1.0000 </r>
       <r>  -44.1334    1.0000 </r>
       <r>  -44.1274    1.0000 </r>
       <r>    1.5031    1.0000 </r>
       <r>    5.0058    1.0000 </r>
       <r>    5.0102    1.0000 </r>
       <r>    7.4374    1.0000 </r>
       <r>    7.4836    1.0000 </r>
       <r>    7.5869    1.0000 </r>
       <r>    8.6514    1.0000 </r>
       <r>    8.7054    1.0000 </r>
       <r>    9.6986    0.8346 </r>
       <r>    9.7603    0.6092 </r>
       <r>    9.9303    0.0335 </r>
       <r>   19.0411    0.0000 </r>
       <r>   19.3255    0.0000 </r>
       <r>   20.0250    0.0000 </r>
       <r>   25.8107    0.0000 </r>
       <r>   26.3290    0.0000 </r>
       <r>   31.1461    0.0000 </r>
       <r>   33.1904    0.0000 </r>
      </set>
      <set comment="kpoint 10">
       <r>  -44.4314    1.0000 </r>
       <r>  -44.4065    1.0000 </r>
       <r>  -44.3960    1.0000 </r>
       <r>  -44.1678    1.0000 </r>
       <r>  -44.1422    1.0000 </r>
       <r>  -44.1313    1.0000 </r>
       <r>    1.7750    1.0000 </r>
       <r>    5.1171    1.0000 </r>
       <r>    5.1291    1.0000 </r>
       <r>    7.3975    1.0000 </r>
       <r>    7.4760    1.0000 </r>
       <r>    7.7006    1.0000 </r>
       <r>    8.5499    1.0000 </r>
       <r>    8.7447    1.0000 </r>
       <r>    9.4430    1.0178 </r>
       <r>    9.5437    1.0354 </r>
       <r>    9.9006    0.0933 </r>
       <r>   17.6780    0.0000 </r>
       <r>   19.6968    0.0000 </r>
       <r>   20.5234    0.0000 </r>
       <r>   25.9679    0.0000 </r>
       <r>   27.1923    0.0000 </r>
       <r>   32.0530    0.0000 </r>
       <r>   32.1094    0.0000 </r>
      </set>
      <set comment="kpoint 11">
       <r>  -44.4310    1.0000 </r>
       <r>  -44.3906    1.0000 </r>
       <r>  -44.3770    1.0000 </r>
       <r>  -44.1979    1.0000 </r>
       <r>  -44.1565    1.0000 </r>
       <r>  -44.1425    1.0000 </r>
       <r>    2.2146    1.0000 </r>
       <r>    5.2861    1.0000 </r>
       <r>    5.3127    1.0000 </r>
       <r>    7.3794    1.0000 </r>
       <r>    7.4707    1.0000 </r>
       <r>    7.8466    1.0000 </r>
       <r>    8.3710    1.0000 </r>
       <r>    8.8235    1.0000 </r>
       <r>    9.1221    1.0000 </r>
       <r>    9.2396    1.0004 </r>
       <r>    9.7991    0.4462 </r>
       <r>   15.9923    0.0000 </r>
       <r>   20.4286    0.0000 </r>
       <r>   21.3025    0.0000 </r>
       <r>   26.1324    0.0000 </r>
       <r>   27.8754    0.0000 </r>
       <r>   30.7541    0.0000 </r>
       <r>   32.9362    0.0000 </r>
      </set>
      <set comment="kpoint 12">
       <r>  -44.4261    1.0000 </r>
       <r>  -44.3695    1.0000 </r>
       <r>  -44.3539    1.0000 </r>
       <r>  -44.2336    1.0000 </r>
       <r>  -44.1758    1.0000 </r>
       <r>  -44.1598    1.0000 </r>
       <r>    2.7988    1.0000 </r>
       <r>    5.4656    1.0000 </r>
       <r>    5.5594    1.0000 </r>
       <r>    7.3890    1.0000 </r>
       <r>    7.4695    1.0000 </r>
       <r>    8.0252    1.0000 </r>
       <r>    8.1421    1.0000 </r>
       <r>    8.7746    1.0000 </r>
       <r>    8.9029    1.0000 </r>
       <r>    8.9321    1.0000 </r>
       <r>    9.6413    0.9684 </r>
       <r>   14.3207   -0.0000 </r>
       <r>   21.3572    0.0000 </r>
       <r>   22.3095    0.0000 </r>
       <r>   26.3637    0.0000 </r>
       <r>   28.3408    0.0000 </r>
       <r>   29.4877    0.0000 </r>
       <r>   31.8247    0.0000 </r>
      </set>
      <set comment="kpoint 13">
       <r>  -44.4157    1.0000 </r>
       <r>  -44.3442    1.0000 </r>
       <r>  -44.3273    1.0000 </r>
       <r>  -44.2721    1.0000 </r>
       <r>  -44.1994    1.0000 </r>
       <r>  -44.1823    1.0000 </r>
       <r>    3.4878    1.0000 </r>
       <r>    5.5914    1.0000 </r>
       <r>    5.8613    1.0000 </r>
       <r>    7.4349    1.0000 </r>
       <r>    7.4385    1.0000 </r>
       <r>    7.9211    1.0000 </r>
       <r>    8.2332    1.0000 </r>
       <r>    8.4352    1.0000 </r>
       <r>    8.5804    1.0000 </r>
       <r>    9.0820    1.0000 </r>
       <r>    9.4410    1.0174 </r>
       <r>   12.7781   -0.0000 </r>
       <r>   22.4209    0.0000 </r>
       <r>   23.4966    0.0000 </r>
       <r>   26.6836    0.0000 </r>
       <r>   28.2828    0.0000 </r>
       <r>   28.7774    0.0000 </r>
       <r>   30.5894    0.0000 </r>
      </set>
      <set comment="kpoint 14">
       <r>  -44.3990    1.0000 </r>
       <r>  -44.3158    1.0000 </r>
       <r>  -44.3103    1.0000 </r>
       <r>  -44.2983    1.0000 </r>
       <r>  -44.2264    1.0000 </r>
       <r>  -44.2086    1.0000 </r>
       <r>    4.2146    1.0000 </r>
       <r>    5.5819    1.0000 </r>
       <r>    6.2040    1.0000 </r>
       <r>    7.2581    1.0000 </r>
       <r>    7.5261    1.0000 </r>
       <r>    7.8493    1.0000 </r>
       <r>    8.1289    1.0000 </r>
       <r>    8.3050    1.0000 </r>
       <r>    8.4648    1.0000 </r>
       <r>    9.2113    1.0002 </r>
       <r>    9.3158    1.0022 </r>
       <r>   11.4502   -0.0000 </r>
       <r>   23.5676    0.0000 </r>
       <r>   24.8250    0.0000 </r>
       <r>   27.1131    0.0000 </r>
       <r>   27.1165    0.0000 </r>
       <r>   29.3224    0.0000 </r>
       <r>   29.4319    0.0000 </r>
      </set>
      <set comment="kpoint 15">
       <r>  -44.3754    1.0000 </r>
       <r>  -44.3454    1.0000 </r>
       <r>  -44.2859    1.0000 </r>
       <r>  -44.2679    1.0000 </r>
       <r>  -44.2556    1.0000 </r>
       <r>  -44.2376    1.0000 </r>
       <r>    4.8763    1.0000 </r>
       <r>    5.3539    1.0000 </r>
       <r>    6.5700    1.0000 </r>
       <r>    6.9358    1.0000 </r>
       <r>    7.6702    1.0000 </r>
       <r>    7.8714    1.0000 </r>
       <r>    7.9340    1.0000 </r>
       <r>    8.0908    1.0000 </r>
       <r>    8.7117    1.0000 </r>
       <r>    8.9643    1.0000 </r>
       <r>    9.7234    0.7522 </r>
       <r>   10.4178   -0.0000 </r>
       <r>   24.7530    0.0000 </r>
       <r>   25.9409    0.0000 </r>
       <r>   26.2621    0.0000 </r>
       <r>   27.6962    0.0000 </r>
       <r>   27.7779    0.0000 </r>
       <r>   28.4593    0.0000 </r>
      </set>
      <set comment="kpoint 16">
       <r>  -44.4423    1.0000 </r>
       <r>  -44.3972    1.0000 </r>
       <r>  -44.3749    1.0000 </r>
       <r>  -44.1966    1.0000 </r>
       <r>  -44.1503    1.0000 </r>
       <r>  -44.1273    1.0000 </r>
       <r>    2.0396    1.0000 </r>
       <r>    5.2125    1.0000 </r>
       <r>    5.2569    1.0000 </r>
       <r>    7.2964    1.0000 </r>
       <r>    7.4491    1.0000 </r>
       <r>    7.8731    1.0000 </r>
       <r>    8.5507    1.0000 </r>
       <r>    8.7186    1.0000 </r>
       <r>    9.1343    1.0000 </r>
       <r>    9.3332    1.0031 </r>
       <r>    9.9631   -0.0084 </r>
       <r>   17.6741    0.0000 </r>
       <r>   18.6274    0.0000 </r>
       <r>   20.9837    0.0000 </r>
       <r>   26.2838    0.0000 </r>
       <r>   28.1753    0.0000 </r>
       <r>   30.8594    0.0000 </r>
       <r>   32.8744    0.0000 </r>
      </set>
      <set comment="kpoint 17">
       <r>  -44.4490    1.0000 </r>
       <r>  -44.3823    1.0000 </r>
       <r>  -44.3507    1.0000 </r>
       <r>  -44.2319    1.0000 </r>
       <r>  -44.1636    1.0000 </r>
       <r>  -44.1312    1.0000 </r>
       <r>    2.4656    1.0000 </r>
       <r>    5.3571    1.0000 </r>
       <r>    5.4510    1.0000 </r>
       <r>    7.2229    1.0000 </r>
       <r>    7.4168    1.0000 </r>
       <r>    8.0700    1.0000 </r>
       <r>    8.4517    1.0000 </r>
       <r>    8.7737    1.0000 </r>
       <r>    8.7834    1.0000 </r>
       <r>    9.0463    1.0000 </r>
       <r>    9.9429    0.0145 </r>
       <r>   16.2595    0.0000 </r>
       <r>   18.9924    0.0000 </r>
       <r>   21.7129    0.0000 </r>
       <r>   26.4823    0.0000 </r>
       <r>   29.1377    0.0000 </r>
       <r>   29.4427    0.0000 </r>
       <r>   32.4381    0.0000 </r>
      </set>
      <set comment="kpoint 18">
       <r>  -44.4502    1.0000 </r>
       <r>  -44.3625    1.0000 </r>
       <r>  -44.3240    1.0000 </r>
       <r>  -44.2711    1.0000 </r>
       <r>  -44.1816    1.0000 </r>
       <r>  -44.1422    1.0000 </r>
       <r>    3.0271    1.0000 </r>
       <r>    5.5180    1.0000 </r>
       <r>    5.6920    1.0000 </r>
       <r>    7.1859    1.0000 </r>
       <r>    7.3803    1.0000 </r>
       <r>    8.2878    1.0000 </r>
       <r>    8.2997    1.0000 </r>
       <r>    8.4259    1.0000 </r>
       <r>    8.7462    1.0000 </r>
       <r>    8.8817    1.0000 </r>
       <r>    9.8485    0.2506 </r>
       <r>   14.5983   -0.0000 </r>
       <r>   19.7938    0.0000 </r>
       <r>   22.6681    0.0000 </r>
       <r>   26.7002    0.0000 </r>
       <r>   28.0209    0.0000 </r>
       <r>   29.8443    0.0000 </r>
       <r>   31.4494    0.0000 </r>
      </set>
      <set comment="kpoint 19">
       <r>  -44.4450    1.0000 </r>
       <r>  -44.3387    1.0000 </r>
       <r>  -44.3114    1.0000 </r>
       <r>  -44.2953    1.0000 </r>
       <r>  -44.2036    1.0000 </r>
       <r>  -44.1594    1.0000 </r>
       <r>    3.6801    1.0000 </r>
       <r>    5.6304    1.0000 </r>
       <r>    5.9693    1.0000 </r>
       <r>    7.1936    1.0000 </r>
       <r>    7.3114    1.0000 </r>
       <r>    8.0895    1.0000 </r>
       <r>    8.1684    1.0000 </r>
       <r>    8.4885    1.0000 </r>
       <r>    8.5229    1.0000 </r>
       <r>    9.0347    1.0000 </r>
       <r>    9.6943    0.8474 </r>
       <r>   13.0325   -0.0000 </r>
       <r>   20.7423    0.0000 </r>
       <r>   23.8085    0.0000 </r>
       <r>   26.6486    0.0000 </r>
       <r>   26.9850    0.0000 </r>
       <r>   30.3829    0.0000 </r>
       <r>   30.4694    0.0000 </r>
      </set>
      <set comment="kpoint 20">
       <r>  -44.4324    1.0000 </r>
       <r>  -44.3499    1.0000 </r>
       <r>  -44.3122    1.0000 </r>
       <r>  -44.2656    1.0000 </r>
       <r>  -44.2287    1.0000 </r>
       <r>  -44.1816    1.0000 </r>
       <r>    4.3548    1.0000 </r>
       <r>    5.6097    1.0000 </r>
       <r>    6.2757    1.0000 </r>
       <r>    7.1548    1.0000 </r>
       <r>    7.2538    1.0000 </r>
       <r>    7.7943    1.0000 </r>
       <r>    8.1225    1.0000 </r>
       <r>    8.3102    1.0000 </r>
       <r>    8.7699    1.0000 </r>
       <r>    9.2877    1.0012 </r>
       <r>    9.4956    1.0297 </r>
       <r>   11.6541   -0.0000 </r>
       <r>   21.7866    0.0000 </r>
       <r>   25.0982    0.0000 </r>
       <r>   25.3374    0.0000 </r>
       <r>   27.3701    0.0000 </r>
       <r>   29.3939    0.0000 </r>
       <r>   29.5652    0.0000 </r>
      </set>
      <set comment="kpoint 21">
       <r>  -44.4119    1.0000 </r>
       <r>  -44.3841    1.0000 </r>
       <r>  -44.2842    1.0000 </r>
       <r>  -44.2559    1.0000 </r>
       <r>  -44.2360    1.0000 </r>
       <r>  -44.2075    1.0000 </r>
       <r>    4.9559    1.0000 </r>
       <r>    5.3899    1.0000 </r>
       <r>    6.5954    1.0000 </r>
       <r>    6.9018    1.0000 </r>
       <r>    7.3727    1.0000 </r>
       <r>    7.5532    1.0000 </r>
       <r>    8.1522    1.0000 </r>
       <r>    8.2103    1.0000 </r>
       <r>    9.0211    1.0000 </r>
       <r>    9.2668    1.0007 </r>
       <r>    9.7548    0.6319 </r>
       <r>   10.5407   -0.0000 </r>
       <r>   22.9050    0.0000 </r>
       <r>   24.0893    0.0000 </r>
       <r>   26.5068    0.0000 </r>
       <r>   27.8839    0.0000 </r>
       <r>   28.0063    0.0000 </r>
       <r>   28.5546    0.0000 </r>
      </set>
      <set comment="kpoint 22">
       <r>  -44.4631    1.0000 </r>
       <r>  -44.3690    1.0000 </r>
       <r>  -44.3221    1.0000 </r>
       <r>  -44.2714    1.0000 </r>
       <r>  -44.1753    1.0000 </r>
       <r>  -44.1273    1.0000 </r>
       <r>    2.8653    1.0000 </r>
       <r>    5.4536    1.0000 </r>
       <r>    5.6671    1.0000 </r>
       <r>    7.0935    1.0000 </r>
       <r>    7.3654    1.0000 </r>
       <r>    8.3146    1.0000 </r>
       <r>    8.4148    1.0000 </r>
       <r>    8.5066    1.0000 </r>
       <r>    8.7434    1.0000 </r>
       <r>    8.7969    1.0000 </r>
       <r>   10.0116   -0.0337 </r>
       <r>   16.1130    0.0000 </r>
       <r>   18.0031    0.0000 </r>
       <r>   22.3726    0.0000 </r>
       <r>   26.6734    0.0000 </r>
       <r>   27.9203    0.0000 </r>
       <r>   30.5563    0.0000 </r>
       <r>   31.8288    0.0000 </r>
      </set>
      <set comment="kpoint 23">
       <r>  -44.4714    1.0000 </r>
       <r>  -44.3513    1.0000 </r>
       <r>  -44.3133    1.0000 </r>
       <r>  -44.2924    1.0000 </r>
       <r>  -44.1910    1.0000 </r>
       <r>  -44.1309    1.0000 </r>
       <r>    3.3814    1.0000 </r>
       <r>    5.5489    1.0000 </r>
       <r>    5.9328    1.0000 </r>
       <r>    7.0052    1.0000 </r>
       <r>    7.3331    1.0000 </r>
       <r>    8.0538    1.0000 </r>
       <r>    8.4612    1.0000 </r>
       <r>    8.5622    1.0000 </r>
       <r>    8.5704    1.0000 </r>
       <r>    8.8134    1.0000 </r>
       <r>    9.9981   -0.0302 </r>
       <r>   14.8474   -0.0000 </r>
       <r>   18.3178    0.0000 </r>
       <r>   23.2527    0.0000 </r>
       <r>   26.4037    0.0000 </r>
       <r>   26.8593    0.0000 </r>
       <r>   31.0165    0.0000 </r>
       <r>   31.6674    0.0000 </r>
      </set>
      <set comment="kpoint 24">
       <r>  -44.4725    1.0000 </r>
       <r>  -44.3547    1.0000 </r>
       <r>  -44.3301    1.0000 </r>
       <r>  -44.2623    1.0000 </r>
       <r>  -44.2103    1.0000 </r>
       <r>  -44.1416    1.0000 </r>
       <r>    3.9610    1.0000 </r>
       <r>    5.5964    1.0000 </r>
       <r>    6.2210    1.0000 </r>
       <r>    6.9676    1.0000 </r>
       <r>    7.3021    1.0000 </r>
       <r>    7.7251    1.0000 </r>
       <r>    8.3987    1.0000 </r>
       <r>    8.4006    1.0000 </r>
       <r>    8.8314    1.0000 </r>
       <r>    8.9599    1.0000 </r>
       <r>    9.9106    0.0706 </r>
       <r>   13.3302   -0.0000 </r>
       <r>   19.1148    0.0000 </r>
       <r>   24.3214    0.0000 </r>
       <r>   24.9537    0.0000 </r>
       <r>   27.1004    0.0000 </r>
       <r>   30.1104    0.0000 </r>
       <r>   31.5231    0.0000 </r>
      </set>
      <set comment="kpoint 25">
       <r>  -44.4654    1.0000 </r>
       <r>  -44.3927    1.0000 </r>
       <r>  -44.3065    1.0000 </r>
       <r>  -44.2329    1.0000 </r>
       <r>  -44.2325    1.0000 </r>
       <r>  -44.1582    1.0000 </r>
       <r>    4.5296    1.0000 </r>
       <r>    5.5424    1.0000 </r>
       <r>    6.5120    1.0000 </r>
       <r>    6.9887    1.0000 </r>
       <r>    7.2149    1.0000 </r>
       <r>    7.4458    1.0000 </r>
       <r>    8.3386    1.0000 </r>
       <r>    8.3858    1.0000 </r>
       <r>    9.0905    1.0000 </r>
       <r>    9.2392    1.0004 </r>
       <r>    9.7623    0.6011 </r>
       <r>   11.9152   -0.0000 </r>
       <r>   20.0771    0.0000 </r>
       <r>   23.5904    0.0000 </r>
       <r>   25.5486    0.0000 </r>
       <r>   27.4339    0.0000 </r>
       <r>   29.2422    0.0000 </r>
       <r>   29.9245    0.0000 </r>
      </set>
      <set comment="kpoint 26">
       <r>  -44.4495    1.0000 </r>
       <r>  -44.4249    1.0000 </r>
       <r>  -44.2816    1.0000 </r>
       <r>  -44.2566    1.0000 </r>
       <r>  -44.2050    1.0000 </r>
       <r>  -44.1797    1.0000 </r>
       <r>    5.0090    1.0000 </r>
       <r>    5.3504    1.0000 </r>
       <r>    6.7910    1.0000 </r>
       <r>    7.0366    1.0000 </r>
       <r>    7.0742    1.0000 </r>
       <r>    7.2269    1.0000 </r>
       <r>    8.3521    1.0000 </r>
       <r>    8.3819    1.0000 </r>
       <r>    9.3392    1.0035 </r>
       <r>    9.5672    1.0324 </r>
       <r>    9.8014    0.4365 </r>
       <r>   10.7109   -0.0000 </r>
       <r>   21.1499    0.0000 </r>
       <r>   22.3217    0.0000 </r>
       <r>   26.9075    0.0000 </r>
       <r>   27.8908    0.0000 </r>
       <r>   28.3743    0.0000 </r>
       <r>   28.4926    0.0000 </r>
      </set>
      <set comment="kpoint 27">
       <r>  -44.4869    1.0000 </r>
       <r>  -44.3565    1.0000 </r>
       <r>  -44.3364    1.0000 </r>
       <r>  -44.2610    1.0000 </r>
       <r>  -44.2039    1.0000 </r>
       <r>  -44.1272    1.0000 </r>
       <r>    3.8176    1.0000 </r>
       <r>    5.5507    1.0000 </r>
       <r>    6.2382    1.0000 </r>
       <r>    6.8674    1.0000 </r>
       <r>    7.3663    1.0000 </r>
       <r>    7.6991    1.0000 </r>
       <r>    8.4197    1.0000 </r>
       <r>    8.5645    1.0000 </r>
       <r>    8.7801    1.0000 </r>
       <r>    8.8553    1.0000 </r>
       <r>   10.0677   -0.0315 </r>
       <r>   14.5453   -0.0000 </r>
       <r>   17.5791    0.0000 </r>
       <r>   24.0456    0.0000 </r>
       <r>   24.8248    0.0000 </r>
       <r>   27.0041    0.0000 </r>
       <r>   30.4216    0.0000 </r>
       <r>   33.3078    0.0000 </r>
      </set>
      <set comment="kpoint 28">
       <r>  -44.4948    1.0000 </r>
       <r>  -44.3977    1.0000 </r>
       <r>  -44.3186    1.0000 </r>
       <r>  -44.2309    1.0000 </r>
       <r>  -44.2196    1.0000 </r>
       <r>  -44.1307    1.0000 </r>
       <r>    4.2709    1.0000 </r>
       <r>    5.5042    1.0000 </r>
       <r>    6.5701    1.0000 </r>
       <r>    6.7843    1.0000 </r>
       <r>    7.3850    1.0000 </r>
       <r>    7.4669    1.0000 </r>
       <r>    8.3633    1.0000 </r>
       <r>    8.5813    1.0000 </r>
       <r>    8.8708    1.0000 </r>
       <r>    9.1326    1.0000 </r>
       <r>   10.0563   -0.0334 </r>
       <r>   13.4480   -0.0000 </r>
       <r>   17.8561    0.0000 </r>
       <r>   23.3367    0.0000 </r>
       <r>   25.0250    0.0000 </r>
       <r>   27.1955    0.0000 </r>
       <r>   29.7168    0.0000 </r>
       <r>   31.9638    0.0000 </r>
      </set>
      <set comment="kpoint 29">
       <r>  -44.4939    1.0000 </r>
       <r>  -44.4340    1.0000 </r>
       <r>  -44.2990    1.0000 </r>
       <r>  -44.2378    1.0000 </r>
       <r>  -44.2029    1.0000 </r>
       <r>  -44.1409    1.0000 </r>
       <r>    4.6741    1.0000 </r>
       <r>    5.3975    1.0000 </r>
       <r>    6.7644    1.0000 </r>
       <r>    6.8941    1.0000 </r>
       <r>    7.1269    1.0000 </r>
       <r>    7.5149    1.0000 </r>
       <r>    8.3978    1.0000 </r>
       <r>    8.6003    1.0000 </r>
       <r>    9.1680    1.0001 </r>
       <r>    9.3933    1.0089 </r>
       <r>    9.9714   -0.0155 </r>
       <r>   12.1201   -0.0000 </r>
       <r>   18.6141    0.0000 </r>
       <r>   21.9606    0.0000 </r>
       <r>   26.1678    0.0000 </r>
       <r>   27.4703    0.0000 </r>
       <r>   29.0056    0.0000 </r>
       <r>   30.3674    0.0000 </r>
      </set>
      <set comment="kpoint 30">
       <r>  -44.4833    1.0000 </r>
       <r>  -44.4631    1.0000 </r>
       <r>  -44.2783    1.0000 </r>
       <r>  -44.2576    1.0000 </r>
       <r>  -44.1780    1.0000 </r>
       <r>  -44.1570    1.0000 </r>
       <r>    4.9919    1.0000 </r>
       <r>    5.2283    1.0000 </r>
       <r>    6.8136    1.0000 </r>
       <r>    6.9347    1.0000 </r>
       <r>    7.1824    1.0000 </r>
       <r>    7.4064    1.0000 </r>
       <r>    8.4864    1.0000 </r>
       <r>    8.5712    1.0000 </r>
       <r>    9.6275    0.9885 </r>
       <r>    9.8243    0.3426 </r>
       <r>    9.8498    0.2460 </r>
       <r>   10.8747   -0.0000 </r>
       <r>   19.5864    0.0000 </r>
       <r>   20.7076    0.0000 </r>
       <r>   27.4521    0.0000 </r>
       <r>   27.8570    0.0000 </r>
       <r>   28.3711    0.0000 </r>
       <r>   28.8579    0.0000 </r>
      </set>
      <set comment="kpoint 31">
       <r>  -44.5096    1.0000 </r>
       <r>  -44.4372    1.0000 </r>
       <r>  -44.3051    1.0000 </r>
       <r>  -44.2311    1.0000 </r>
       <r>  -44.2022    1.0000 </r>
       <r>  -44.1272    1.0000 </r>
       <r>    4.5468    1.0000 </r>
       <r>    5.3764    1.0000 </r>
       <r>    6.6576    1.0000 </r>
       <r>    6.9626    1.0000 </r>
       <r>    7.0915    1.0000 </r>
       <r>    7.8095    1.0000 </r>
       <r>    8.3944    1.0000 </r>
       <r>    8.6928    1.0000 </r>
       <r>    8.8238    1.0000 </r>
       <r>    9.4129    1.0120 </r>
       <r>   10.1217   -0.0196 </r>
       <r>   13.0429   -0.0000 </r>
       <r>   17.3328    0.0000 </r>
       <r>   21.8402    0.0000 </r>
       <r>   25.9047    0.0000 </r>
       <r>   27.3265    0.0000 </r>
       <r>   29.2249    0.0000 </r>
       <r>   31.8977    0.0000 </r>
      </set>
      <set comment="kpoint 32">
       <r>  -44.5152    1.0000 </r>
       <r>  -44.4705    1.0000 </r>
       <r>  -44.2902    1.0000 </r>
       <r>  -44.2444    1.0000 </r>
       <r>  -44.1770    1.0000 </r>
       <r>  -44.1306    1.0000 </r>
       <r>    4.7614    1.0000 </r>
       <r>    5.2315    1.0000 </r>
       <r>    6.5972    1.0000 </r>
       <r>    6.8590    1.0000 </r>
       <r>    7.3511    1.0000 </r>
       <r>    8.0621    1.0000 </r>
       <r>    8.4837    1.0000 </r>
       <r>    8.7457    1.0000 </r>
       <r>    9.0733    1.0000 </r>
       <r>    9.6614    0.9307 </r>
       <r>   10.1072   -0.0229 </r>
       <r>   12.0930   -0.0000 </r>
       <r>   17.5912    0.0000 </r>
       <r>   20.4886    0.0000 </r>
       <r>   26.9428    0.0000 </r>
       <r>   27.5269    0.0000 </r>
       <r>   28.7020    0.0000 </r>
       <r>   30.7521    0.0000 </r>
      </set>
      <set comment="kpoint 33">
       <r>  -44.5106    1.0000 </r>
       <r>  -44.4955    1.0000 </r>
       <r>  -44.2746    1.0000 </r>
       <r>  -44.2591    1.0000 </r>
       <r>  -44.1562    1.0000 </r>
       <r>  -44.1404    1.0000 </r>
       <r>    4.9309    1.0000 </r>
       <r>    5.0827    1.0000 </r>
       <r>    6.6093    1.0000 </r>
       <r>    6.6968    1.0000 </r>
       <r>    7.6950    1.0000 </r>
       <r>    7.9591    1.0000 </r>
       <r>    8.6005    1.0000 </r>
       <r>    8.7022    1.0000 </r>
       <r>    9.8672    0.1869 </r>
       <r>    9.8796    0.1490 </r>
       <r>   10.0193   -0.0349 </r>
       <r>   10.9533   -0.0000 </r>
       <r>   18.3136    0.0000 </r>
       <r>   19.3031    0.0000 </r>
       <r>   27.8212    0.0000 </r>
       <r>   28.1186    0.0000 </r>
       <r>   28.2185    0.0000 </r>
       <r>   29.4057    0.0000 </r>
      </set>
      <set comment="kpoint 34">
       <r>  -44.5273    1.0000 </r>
       <r>  -44.4998    1.0000 </r>
       <r>  -44.2806    1.0000 </r>
       <r>  -44.2523    1.0000 </r>
       <r>  -44.1559    1.0000 </r>
       <r>  -44.1271    1.0000 </r>
       <r>    4.8158    1.0000 </r>
       <r>    5.0794    1.0000 </r>
       <r>    6.4978    1.0000 </r>
       <r>    6.6558    1.0000 </r>
       <r>    7.8179    1.0000 </r>
       <r>    8.5854    1.0000 </r>
       <r>    8.5980    1.0000 </r>
       <r>    8.8640    1.0000 </r>
       <r>    9.0985    1.0000 </r>
       <r>    9.8825    0.1407 </r>
       <r>   10.1641   -0.0113 </r>
       <r>   11.6569   -0.0000 </r>
       <r>   17.2089    0.0000 </r>
       <r>   19.2120    0.0000 </r>
       <r>   27.6332    0.0000 </r>
       <r>   27.8532    0.0000 </r>
       <r>   28.3709    0.0000 </r>
       <r>   30.6672    0.0000 </r>
      </set>
      <set comment="kpoint 35">
       <r>  -44.5290    1.0000 </r>
       <r>  -44.5197    1.0000 </r>
       <r>  -44.2708    1.0000 </r>
       <r>  -44.2612    1.0000 </r>
       <r>  -44.1402    1.0000 </r>
       <r>  -44.1304    1.0000 </r>
       <r>    4.8736    1.0000 </r>
       <r>    4.9585    1.0000 </r>
       <r>    6.4729    1.0000 </r>
       <r>    6.5257    1.0000 </r>
       <r>    8.2336    1.0000 </r>
       <r>    8.5380    1.0000 </r>
       <r>    8.6889    1.0000 </r>
       <r>    8.7845    1.0000 </r>
       <r>    9.9039    0.0856 </r>
       <r>   10.0458   -0.0347 </r>
       <r>   10.1420   -0.0153 </r>
       <r>   10.8516   -0.0000 </r>
       <r>   17.4634    0.0000 </r>
       <r>   18.1781    0.0000 </r>
       <r>   27.8098    0.0000 </r>
       <r>   28.0610    0.0000 </r>
       <r>   28.8632    0.0000 </r>
       <r>   29.8900    0.0000 </r>
      </set>
      <set comment="kpoint 36">
       <r>  -44.5370    1.0000 </r>
       <r>  -44.5339    1.0000 </r>
       <r>  -44.2671    1.0000 </r>
       <r>  -44.2639    1.0000 </r>
       <r>  -44.1304    1.0000 </r>
       <r>  -44.1271    1.0000 </r>
       <r>    4.8512    1.0000 </r>
       <r>    4.8786    1.0000 </r>
       <r>    6.4117    1.0000 </r>
       <r>    6.4294    1.0000 </r>
       <r>    8.6861    1.0000 </r>
       <r>    8.7472    1.0000 </r>
       <r>    8.7580    1.0000 </r>
       <r>    8.8884    1.0000 </r>
       <r>   10.0960   -0.0255 </r>
       <r>   10.1544   -0.0129 </r>
       <r>   10.1874   -0.0079 </r>
       <r>   10.5199   -0.0000 </r>
       <r>   17.1601    0.0000 </r>
       <r>   17.4264    0.0000 </r>
[...]
       </set>
       <set comment="band 12">
        <r>  0.0000  0.0125  0.0497  0.0124  0.1913  0.0477  0.0372  0.0480  0.0000 </r>
        <r>  0.0000  0.0125  0.0497  0.0124  0.1913  0.0477  0.0372  0.0480  0.0000 </r>
       </set>
       <set comment="band 13">
        <r>  0.0000  0.0002  0.0000  0.0002  0.0000  0.0285  0.0003  0.0270  0.4336 </r>
        <r>  0.0000  0.0002  0.0000  0.0002  0.0000  0.0285  0.0003  0.0270  0.4336 </r>
       </set>
       <set comment="band 14">
        <r>  0.0000  0.0001  0.0003  0.0001  0.0370  0.0085  0.4336  0.0101  0.0003 </r>
        <r>  0.0000  0.0001  0.0003  0.0001  0.0370  0.0085  0.4336  0.0101  0.0003 </r>
       </set>
       <set comment="band 15">
        <r>  0.0000  0.0000  0.0000  0.0000  0.0000  0.0109  0.0003  0.0103  0.4687 </r>
        <r>  0.0000  0.0000  0.0000  0.0000  0.0000  0.0109  0.0003  0.0103  0.4687 </r>
       </set>
       <set comment="band 16">
        <r>  0.0000  0.0000  0.0000  0.0000  0.0142  0.0032  0.4687  0.0039  0.0003 </r>
        <r>  0.0000  0.0000  0.0000  0.0000  0.0142  0.0032  0.4687  0.0039  0.0003 </r>
       </set>
       <set comment="band 17">
        <r>  0.0343  0.0318  0.0318  0.0318  0.0979  0.0979  0.0000  0.0979  0.0000 </r>
        <r>  0.0343  0.0318  0.0318  0.0318  0.0979  0.0979  0.0000  0.0979  0.0000 </r>
       </set>
       <set comment="band 18">
        <r>  0.0000  0.0859  0.0000  0.0873  0.0000  0.0989  0.0000  0.0973  0.0242 </r>
        <r>  0.0000  0.0859  0.0000  0.0873  0.0000  0.0989  0.0000  0.0973  0.0242 </r>
       </set>
       <set comment="band 19">
        <r>  0.0000  0.0295  0.1155  0.0282  0.1308  0.0319  0.0242  0.0335  0.0000 </r>
        <r>  0.0000  0.0295  0.1155  0.0282  0.1308  0.0319  0.0242  0.0335  0.0000 </r>
       </set>
       <set comment="band 20">
        <r>  0.2604  0.0030  0.0030  0.0030  0.0365  0.0365  0.0000  0.0365  0.0000 </r>
        <r>  0.2604  0.0030  0.0030  0.0030  0.0365  0.0365  0.0000  0.0365  0.0000 </r>
       </set>
       <set comment="band 21">
        <r>  0.0000  0.0883  0.0000  0.0899  0.0000  0.0881  0.0000  0.0865  0.0118 </r>
        <r>  0.0000  0.0883  0.0000  0.0899  0.0000  0.0881  0.0000  0.0865  0.0118 </r>
       </set>
       <set comment="band 22">
        <r>  0.0000  0.0305  0.1188  0.0289  0.1164  0.0283  0.0118  0.0299  0.0000 </r>
        <r>  0.0000  0.0305  0.1188  0.0289  0.1164  0.0283  0.0118  0.0299  0.0000 </r>
       </set>
       <set comment="band 23">
        <r>  0.2963  0.0323  0.0323  0.0323  0.0000  0.0000  0.0000  0.0000  0.0000 </r>
        <r>  0.2963  0.0323  0.0323  0.0323  0.0000  0.0000  0.0000  0.0000  0.0000 </r>
       </set>
       <set comment="band 24">
        <r>  0.0890  0.0674  0.0674  0.0674  0.0286  0.0286  0.0000  0.0286  0.0000 </r>
        <r>  0.0890  0.0674  0.0674  0.0674  0.0286  0.0286  0.0000  0.0286  0.0000 </r>
       </set>
      </set>
      <set comment="kpoint 118">
       <set comment="band 1">
        <r>  0.0000  0.1339  0.1339  0.2285  0.0000  0.0001  0.0000  0.0000  0.0000 </r>
        <r>  0.0000  0.1339  0.1339  0.2285  0.0000  0.0001  0.0000  0.0000  0.0000 </r>
       </set>
       <set comment="band 2">
        <r>  0.0000  0.1058  0.1058  0.2849  0.0000  0.0001  0.0000  0.0000  0.0000 </r>
        <r>  0.0000  0.1058  0.1058  0.2849  0.0000  0.0001  0.0000  0.0000  0.0000 </r>
       </set>
       <set comment="band 3">
        <r>  0.0000  0.2486  0.2486  0.0000  0.0001  0.0000  0.0000  0.0001  0.0000 </r>
        <r>  0.0000  0.2486  0.2486  0.0000  0.0001  0.0000  0.0000  0.0001  0.0000 </r>
       </set>
       <set comment="band 4">
        <r>  0.0000  0.2488  0.2488  0.0000  0.0001  0.0000  0.0000  0.0001  0.0000 </r>
        <r>  0.0000  0.2488  0.2488  0.0000  0.0001  0.0000  0.0000  0.0001  0.0000 </r>
       </set>
       <set comment="band 5">
        <r>  0.0000  0.1147  0.1147  0.2688  0.0000  0.0001  0.0000  0.0000  0.0000 </r>
        <r>  0.0000  0.1147  0.1147  0.2688  0.0000  0.0001  0.0000  0.0000  0.0000 </r>
       </set>
       <set comment="band 6">
        <r>  0.0000  0.1430  0.1430  0.2124  0.0000  0.0001  0.0000  0.0000  0.0000 </r>
        <r>  0.0000  0.1430  0.1430  0.2124  0.0000  0.0001  0.0000  0.0000  0.0000 </r>
       </set>
       <set comment="band 7">
        <r>  0.0136  0.0131  0.0131  0.0013  0.1497  0.0789  0.0009  0.1497  0.0026 </r>
        <r>  0.0136  0.0131  0.0131  0.0013  0.1497  0.0789  0.0009  0.1497  0.0026 </r>
       </set>
       <set comment="band 8">
        <r>  0.0156  0.0228  0.0228  0.0000  0.1512  0.0389  0.0018  0.1513  0.0053 </r>
        <r>  0.0156  0.0228  0.0228  0.0000  0.1512  0.0389  0.0018  0.1513  0.0053 </r>
       </set>
       <set comment="band 9">
        <r>  0.0000  0.0231  0.0231  0.0000  0.1757  0.0000  0.0154  0.1756  0.0051 </r>
        <r>  0.0000  0.0231  0.0231  0.0000  0.1757  0.0000  0.0154  0.1756  0.0051 </r>
       </set>
       <set comment="band 10">
        <r>  0.0000  0.0299  0.0299  0.0000  0.1607  0.0000  0.0206  0.1607  0.0069 </r>
        <r>  0.0000  0.0299  0.0299  0.0000  0.1607  0.0000  0.0206  0.1607  0.0069 </r>
       </set>
       <set comment="band 11">
        <r>  0.0079  0.0071  0.0071  0.0608  0.0038  0.3071  0.0000  0.0038  0.0000 </r>
        <r>  0.0079  0.0071  0.0071  0.0608  0.0038  0.3071  0.0000  0.0038  0.0000 </r>
       </set>
       <set comment="band 12">
        <r>  0.0017  0.0104  0.0104  0.0598  0.0186  0.2655  0.0029  0.0186  0.0086 </r>
        <r>  0.0017  0.0104  0.0104  0.0598  0.0186  0.2655  0.0029  0.0186  0.0086 </r>
       </set>
       <set comment="band 13">
        <r>  0.0000  0.0001  0.0001  0.0000  0.0201  0.0000  0.3371  0.0201  0.1126 </r>
        <r>  0.0000  0.0001  0.0001  0.0000  0.0201  0.0000  0.3371  0.0201  0.1126 </r>
       </set>
       <set comment="band 14">
        <r>  0.0000  0.0000  0.0000  0.0000  0.0146  0.0000  0.3455  0.0147  0.1154 </r>
        <r>  0.0000  0.0000  0.0000  0.0000  0.0146  0.0000  0.3455  0.0147  0.1154 </r>
       </set>
       <set comment="band 15">
        <r>  0.0001  0.0000  0.0000  0.0001  0.0073  0.0087  0.1171  0.0073  0.3505 </r>
        <r>  0.0001  0.0000  0.0000  0.0001  0.0073  0.0087  0.1171  0.0073  0.3505 </r>
       </set>
       <set comment="band 16">
        <r>  0.0001  0.0000  0.0000  0.0000  0.0052  0.0003  0.1203  0.0052  0.3601 </r>
        <r>  0.0001  0.0000  0.0000  0.0000  0.0052  0.0003  0.1203  0.0052  0.3601 </r>
       </set>
       <set comment="band 17">
        <r>  0.0312  0.0313  0.0313  0.0547  0.0780  0.1046  0.0005  0.0780  0.0016 </r>
        <r>  0.0312  0.0313  0.0313  0.0547  0.0780  0.1046  0.0005  0.0780  0.0016 </r>
       </set>
       <set comment="band 18">
        <r>  0.0167  0.0309  0.0309  0.0855  0.0576  0.1105  0.0025  0.0576  0.0076 </r>
        <r>  0.0167  0.0309  0.0309  0.0855  0.0576  0.1105  0.0025  0.0576  0.0076 </r>
       </set>
       <set comment="band 19">
        <r>  0.0000  0.0890  0.0890  0.0000  0.0947  0.0000  0.0139  0.0947  0.0046 </r>
        <r>  0.0000  0.0890  0.0890  0.0000  0.0947  0.0000  0.0139  0.0947  0.0046 </r>
       </set>
       <set comment="band 20">
        <r>  0.0000  0.0899  0.0899  0.0000  0.0912  0.0000  0.0110  0.0912  0.0037 </r>
        <r>  0.0000  0.0899  0.0899  0.0000  0.0912  0.0000  0.0110  0.0912  0.0037 </r>
       </set>
       <set comment="band 21">
        <r>  0.2208  0.0006  0.0006  0.0432  0.0254  0.0600  0.0000  0.0254  0.0000 </r>
        <r>  0.2208  0.0006  0.0006  0.0432  0.0254  0.0600  0.0000  0.0254  0.0000 </r>
       </set>
       <set comment="band 22">
        <r>  0.1362  0.0020  0.0020  0.1029  0.0247  0.0771  0.0004  0.0247  0.0013 </r>
        <r>  0.1362  0.0020  0.0020  0.1029  0.0247  0.0771  0.0004  0.0247  0.0013 </r>
       </set>
       <set comment="band 23">
        <r>  0.1816  0.0641  0.0641  0.0129  0.0135  0.0291  0.0005  0.0135  0.0014 </r>
        <r>  0.1816  0.0641  0.0641  0.0129  0.0135  0.0291  0.0005  0.0135  0.0014 </r>
       </set>
       <set comment="band 24">
        <r>  0.1181  0.0676  0.0676  0.0426  0.0235  0.0330  0.0001  0.0235  0.0004 </r>
        <r>  0.1181  0.0676  0.0676  0.0426  0.0235  0.0330  0.0001  0.0235  0.0004 </r>
       </set>
      </set>
      <set comment="kpoint 119">
       <set comment="band 1">
        <r>  0.0000  0.2193  0.0578  0.2193  0.0000  0.0001  0.0000  0.0001  0.0000 </r>
        <r>  0.0000  0.2193  0.0578  0.2193  0.0000  0.0001  0.0000  0.0001  0.0000 </r>
       </set>
       <set comment="band 2">
        <r>  0.0000  0.2483  0.0000  0.2483  0.0000  0.0001  0.0000  0.0001  0.0000 </r>
        <r>  0.0000  0.2483  0.0000  0.2483  0.0000  0.0001  0.0000  0.0001  0.0000 </r>
       </set>
       <set comment="band 3">
        <r>  0.0000  0.0369  0.4235  0.0369  0.0001  0.0000  0.0000  0.0000  0.0000 </r>
        <r>  0.0000  0.0369  0.4235  0.0369  0.0001  0.0000  0.0000  0.0000  0.0000 </r>
       </set>
       <set comment="band 4">
        <r>  0.0000  0.0290  0.4395  0.0290  0.0001  0.0000  0.0000  0.0000  0.0000 </r>
        <r>  0.0000  0.0290  0.4395  0.0290  0.0001  0.0000  0.0000  0.0000  0.0000 </r>
       </set>
       <set comment="band 5">
        <r>  0.0000  0.2490  0.0000  0.2490  0.0000  0.0001  0.0000  0.0001  0.0000 </r>
        <r>  0.0000  0.2490  0.0000  0.2490  0.0000  0.0001  0.0000  0.0001  0.0000 </r>
       </set>
       <set comment="band 6">
        <r>  0.0000  0.2121  0.0739  0.2121  0.0000  0.0001  0.0000  0.0001  0.0000 </r>
        <r>  0.0000  0.2121  0.0739  0.2121  0.0000  0.0001  0.0000  0.0001  0.0000 </r>
       </set>
       <set comment="band 7">
        <r>  0.0091  0.0042  0.0291  0.0042  0.2278  0.0687  0.0067  0.0687  0.0000 </r>
        <r>  0.0091  0.0042  0.0291  0.0042  0.2278  0.0687  0.0067  0.0687  0.0000 </r>
       </set>
       <set comment="band 8">
        <r>  0.0097  0.0004  0.0512  0.0004  0.3318  0.0000  0.0144  0.0000  0.0000 </r>
        <r>  0.0097  0.0004  0.0512  0.0004  0.3318  0.0000  0.0144  0.0000  0.0000 </r>
       </set>
       <set comment="band 9">
        <r>  0.0000  0.0184  0.0000  0.0184  0.0000  0.1938  0.0000  0.1938  0.0018 </r>
        <r>  0.0000  0.0184  0.0000  0.0184  0.0000  0.1938  0.0000  0.1938  0.0018 </r>
       </set>
       <set comment="band 10">
        <r>  0.0006  0.0143  0.0224  0.0143  0.1047  0.1241  0.0108  0.1241  0.0000 </r>
        <r>  0.0006  0.0143  0.0224  0.0143  0.1047  0.1241  0.0108  0.1241  0.0000 </r>
       </set>
       <set comment="band 11">
        <r>  0.0029  0.0404  0.0002  0.0404  0.0012  0.1552  0.0008  0.1552  0.0000 </r>
        <r>  0.0029  0.0404  0.0002  0.0404  0.0012  0.1552  0.0008  0.1552  0.0000 </r>
       </set>
       <set comment="band 12">
        <r>  0.0000  0.0407  0.0000  0.0407  0.0000  0.1557  0.0000  0.1557  0.0044 </r>
        <r>  0.0000  0.0407  0.0000  0.0407  0.0000  0.1557  0.0000  0.1557  0.0044 </r>
       </set>
       <set comment="band 13">
        <r>  0.0000  0.0000  0.0001  0.0000  0.0239  0.0010  0.4647  0.0010  0.0000 </r>
        <r>  0.0000  0.0000  0.0001  0.0000  0.0239  0.0010  0.4647  0.0010  0.0000 </r>
       </set>
       <set comment="band 14">
        <r>  0.0000  0.0000  0.0000  0.0000  0.0214  0.0004  0.4685  0.0004  0.0000 </r>
        <r>  0.0000  0.0000  0.0000  0.0000  0.0214  0.0004  0.4685  0.0004  0.0000 </r>
       </set>
       <set comment="band 15">
        <r>  0.0000  0.0000  0.0000  0.0000  0.0000  0.0034  0.0000  0.0034  0.4846 </r>
        <r>  0.0000  0.0000  0.0000  0.0000  0.0000  0.0034  0.0000  0.0034  0.4846 </r>
       </set>
       <set comment="band 16">
        <r>  0.0000  0.0000  0.0000  0.0000  0.0000  0.0013  0.0000  0.0013  0.4890 </r>
        <r>  0.0000  0.0000  0.0000  0.0000  0.0000  0.0013  0.0000  0.0013  0.4890 </r>
       </set>
       <set comment="band 17">
        <r>  0.0216  0.0606  0.0192  0.0606  0.0434  0.0971  0.0006  0.0971  0.0000 </r>
        <r>  0.0216  0.0606  0.0192  0.0606  0.0434  0.0971  0.0006  0.0971  0.0000 </r>
       </set>
       <set comment="band 18">
        <r>  0.0000  0.0840  0.0000  0.0840  0.0000  0.1108  0.0000  0.1108  0.0031 </r>
        <r>  0.0000  0.0840  0.0000  0.0840  0.0000  0.1108  0.0000  0.1108  0.0031 </r>
       </set>
       <set comment="band 19">
        <r>  0.0630  0.0065  0.1126  0.0065  0.1817  0.0040  0.0110  0.0040  0.0000 </r>
        <r>  0.0630  0.0065  0.1126  0.0065  0.1817  0.0040  0.0110  0.0040  0.0000 </r>
       </set>
       <set comment="band 20">
        <r>  0.0604  0.0225  0.0893  0.0225  0.1454  0.0171  0.0088  0.0171  0.0000 </r>
        <r>  0.0604  0.0225  0.0893  0.0225  0.1454  0.0171  0.0088  0.0171  0.0000 </r>
       </set>
       <set comment="band 21">
        <r>  0.1325  0.0489  0.0071  0.0489  0.0005  0.0670  0.0007  0.0670  0.0000 </r>
        <r>  0.1325  0.0489  0.0071  0.0489  0.0005  0.0670  0.0007  0.0670  0.0000 </r>
       </set>
       <set comment="band 22">
        <r>  0.0000  0.0892  0.0000  0.0892  0.0000  0.0925  0.0000  0.0925  0.0014 </r>
        <r>  0.0000  0.0892  0.0000  0.0892  0.0000  0.0925  0.0000  0.0925  0.0014 </r>
       </set>
       <set comment="band 23">
        <r>  0.2815  0.0018  0.0824  0.0018  0.0157  0.0003  0.0016  0.0003  0.0000 </r>
        <r>  0.2815  0.0018  0.0824  0.0018  0.0157  0.0003  0.0016  0.0003  0.0000 </r>
       </set>
       <set comment="band 24">
        <r>  0.1703  0.0350  0.0715  0.0350  0.0203  0.0227  0.0008  0.0227  0.0000 </r>
        <r>  0.1703  0.0350  0.0715  0.0350  0.0203  0.0227  0.0008  0.0227  0.0000 </r>
       </set>
      </set>
      <set comment="kpoint 120">
       <set comment="band 1">
        <r>  0.0000  0.1656  0.1656  0.1656  0.0001  0.0001  0.0000  0.0001  0.0000 </r>
        <r>  0.0000  0.1656  0.1656  0.1656  0.0001  0.0001  0.0000  0.0001  0.0000 </r>
       </set>
       <set comment="band 2">
        <r>  0.0000  0.1105  0.0580  0.3286  0.0000  0.0001  0.0000  0.0000  0.0000 </r>
        <r>  0.0000  0.1105  0.0580  0.3286  0.0000  0.0001  0.0000  0.0000  0.0000 </r>
       </set>
       <set comment="band 3">
        <r>  0.0000  0.2208  0.2734  0.0028  0.0001  0.0000  0.0000  0.0001  0.0000 </r>
        <r>  0.0000  0.2208  0.2734  0.0028  0.0001  0.0000  0.0000  0.0001  0.0000 </r>
       </set>
       <set comment="band 4">
        <r>  0.0000  0.1106  0.0580  0.3288  0.0000  0.0001  0.0000  0.0000  0.0000 </r>
        <r>  0.0000  0.1106  0.0580  0.3288  0.0000  0.0001  0.0000  0.0000  0.0000 </r>
       </set>
       <set comment="band 5">
        <r>  0.0000  0.2210  0.2736  0.0028  0.0001  0.0000  0.0000  0.0001  0.0000 </r>
        <r>  0.0000  0.2210  0.2736  0.0028  0.0001  0.0000  0.0000  0.0001  0.0000 </r>
       </set>
       <set comment="band 6">
        <r>  0.0000  0.1659  0.1659  0.1659  0.0001  0.0001  0.0000  0.0001  0.0000 </r>
        <r>  0.0000  0.1659  0.1659  0.1659  0.0001  0.0001  0.0000  0.0001  0.0000 </r>
       </set>
       <set comment="band 7">
        <r>  0.0027  0.0142  0.0142  0.0142  0.1250  0.1250  0.0000  0.1250  0.0000 </r>
        <r>  0.0027  0.0142  0.0142  0.0142  0.1250  0.1250  0.0000  0.1250  0.0000 </r>
       </set>
       <set comment="band 8">
        <r>  0.0000  0.0250  0.0000  0.0247  0.0000  0.1812  0.0000  0.1837  0.0024 </r>
        <r>  0.0000  0.0250  0.0000  0.0247  0.0000  0.1812  0.0000  0.1837  0.0024 </r>
       </set>
       <set comment="band 9">
        <r>  0.0000  0.0081  0.0332  0.0085  0.2432  0.0621  0.0024  0.0596  0.0000 </r>
        <r>  0.0000  0.0081  0.0332  0.0085  0.2432  0.0621  0.0024  0.0596  0.0000 </r>
       </set>
       <set comment="band 10">
        <r>  0.0000  0.0325  0.0000  0.0321  0.0000  0.1688  0.0000  0.1709  0.0032 </r>
        <r>  0.0000  0.0325  0.0000  0.0321  0.0000  0.1688  0.0000  0.1709  0.0032 </r>
       </set>
       <set comment="band 11">
        <r>  0.0000  0.0106  0.0431  0.0110  0.2265  0.0576  0.0032  0.0556  0.0000 </r>
        <r>  0.0000  0.0106  0.0431  0.0110  0.2265  0.0576  0.0032  0.0556  0.0000 </r>
       </set>
       <set comment="band 12">
        <r>  0.0037  0.0240  0.0240  0.0240  0.1083  0.1083  0.0000  0.1083  0.0000 </r>
        <r>  0.0037  0.0240  0.0240  0.0240  0.1083  0.1083  0.0000  0.1083  0.0000 </r>
       </set>
       <set comment="band 13">
        <r>  0.0000  0.0000  0.0000  0.0000  0.0000  0.0025  0.0004  0.0023  0.4864 </r>
        <r>  0.0000  0.0000  0.0000  0.0000  0.0000  0.0025  0.0004  0.0023  0.4864 </r>
       </set>
       <set comment="band 14">
        <r>  0.0000  0.0000  0.0000  0.0000  0.0032  0.0007  0.4864  0.0009  0.0004 </r>
        <r>  0.0000  0.0000  0.0000  0.0000  0.0032  0.0007  0.4864  0.0009  0.0004 </r>
       </set>
       <set comment="band 15">
        <r>  0.0000  0.0000  0.0000  0.0000  0.0000  0.0018  0.0004  0.0017  0.4878 </r>
        <r>  0.0000  0.0000  0.0000  0.0000  0.0000  0.0018  0.0004  0.0017  0.4878 </r>
       </set>
       <set comment="band 16">
        <r>  0.0000  0.0000  0.0000  0.0000  0.0023  0.0005  0.4878  0.0006  0.0004 </r>
        <r>  0.0000  0.0000  0.0000  0.0000  0.0023  0.0005  0.4878  0.0006  0.0004 </r>
       </set>
       <set comment="band 17">
        <r>  0.0194  0.0509  0.0509  0.0509  0.0732  0.0732  0.0000  0.0732  0.0000 </r>
        <r>  0.0194  0.0509  0.0509  0.0509  0.0732  0.0732  0.0000  0.0732  0.0000 </r>
       </set>
       <set comment="band 18">
        <r>  0.0000  0.0871  0.0000  0.0879  0.0000  0.1044  0.0000  0.1035  0.0023 </r>
        <r>  0.0000  0.0871  0.0000  0.0879  0.0000  0.1044  0.0000  0.1035  0.0023 </r>
       </set>
       <set comment="band 19">
        <r>  0.0000  0.0295  0.1166  0.0288  0.1386  0.0342  0.0023  0.0351  0.0000 </r>
        <r>  0.0000  0.0295  0.1166  0.0288  0.1386  0.0342  0.0023  0.0351  0.0000 </r>
       </set>
       <set comment="band 20">
        <r>  0.0000  0.0887  0.0000  0.0897  0.0000  0.0987  0.0000  0.0976  0.0017 </r>
        <r>  0.0000  0.0887  0.0000  0.0897  0.0000  0.0987  0.0000  0.0976  0.0017 </r>
       </set>
       <set comment="band 21">
        <r>  0.0000  0.0302  0.1190  0.0293  0.1309  0.0322  0.0017  0.0332  0.0000 </r>
        <r>  0.0000  0.0302  0.1190  0.0293  0.1309  0.0322  0.0017  0.0332  0.0000 </r>
       </set>
       <set comment="band 22">
        <r>  0.1151  0.0351  0.0351  0.0351  0.0521  0.0521  0.0000  0.0521  0.0000 </r>
        <r>  0.1151  0.0351  0.0351  0.0351  0.0521  0.0521  0.0000  0.0521  0.0000 </r>
       </set>
       <set comment="band 23">
        <r>  0.3571  0.0077  0.0077  0.0077  0.0008  0.0008  0.0000  0.0008  0.0000 </r>
        <r>  0.3571  0.0077  0.0077  0.0077  0.0008  0.0008  0.0000  0.0008  0.0000 </r>
       </set>
       <set comment="band 24">
        <r>  0.2623  0.0259  0.0259  0.0259  0.0132  0.0132  0.0000  0.0132  0.0000 </r>
        <r>  0.2623  0.0259  0.0259  0.0259  0.0132  0.0132  0.0000  0.0132  0.0000 </r>
       </set>
      </set>
     </set>
    </set>
   </array>
  </projected>
 </calculation>
 <structure name="finalpos" >
  <crystal>
   <varray name="basis" >
    <v>       2.83117801      -0.00000000       0.00000000 </v>
    <v>       0.00000000       2.83117801       0.00000000 </v>
    <v>       0.00000000       0.00000000       2.83117801 </v>
   </varray>
   <i name="volume">     22.69350249 </i>
   <varray name="rec_basis" >
    <v>       0.35320986      -0.00000000      -0.00000000 </v>
    <v>       0.00000000       0.35320986      -0.00000000 </v>
    <v>      -0.00000000      -0.00000000       0.35320986 </v>
   </varray>
  </crystal>
  <varray name="positions" >
   <v>      -0.00000000      -0.00000000       0.00000000 </v>
   <v>       0.50000000       0.50000000       0.50000000 </v>
  </varray>
 </structure>
</modeling>
