 vasp.6.4.1 05Apr23 (build Jul 31 2023 22:51:27) complex                        
  
 executed on             LinuxIFC date 2026.01.12  14:42:00
 running   32 mpi-ranks, with    1 threads/rank, on    1 nodes
 distrk:  each k-point on   32 cores,    1 groups
 distr:  one band on NCORE=   8 cores,    4 groups


--------------------------------------------------------------------------------------------------------


 INCAR:
   ALGO = Fast
   EDIFF = 1e-06
   EDIFFG = -0.02
   ENCUT = 520.0
   IBRION = 2
   ISIF = 2
   ISMEAR = 0
   ISPIN = 2
   ISYM = 0
   LASPH = True
   LCHARG = False
   LDAU = False
   LORBIT = 11
   LREAL = False
   LWAVE = False
   NUPDOWN = 0
   MAGMOM = 2*0.0
   NELM = 100
   NSW = 500
   PREC = Accurate
   SIGMA = 0.01
   NCORE = 8

 POTCAR:    PAW_PBE O 08Apr2002                   
 POTCAR:    PAW_PBE O 08Apr2002                   
   VRHFIN =O: s2p4                                                                                  
   LEXCH  = PE                                                                                      
   EATOM  =   432.3788 eV,   31.7789 Ry                                                             
                                                                                                    
   TITEL  = PAW_PBE O 08Apr2002                                                                     
   LULTRA =        F    use ultrasoft PP ?                                                          
   IUNSCR =        1    unscreen: 0-lin 1-nonlin 2-no                                               
   RPACOR =    1.200    partial core radius                                                         
   POMASS =   16.000; ZVAL   =    6.000    mass and valenz                                          
   RCORE  =    1.520    outmost cutoff radius                                                       
   RWIGS  =    1.550; RWIGS  =    0.820    wigner-seitz radius (au A)                               
   ENMAX  =  400.000; ENMIN  =  300.000 eV                                                          
   ICORE  =        2    local potential                                                             
   LCOR   =        T    correct aug charges                                                         
   LPAW   =        T    paw PP                                                                      
   EAUG   =  605.392                                                                                
   DEXC   =    0.000                                                                                
   RMAX   =    1.553    core radius for proj-oper                                                   
   RAUG   =    1.300    factor for augmentation sphere                                              
   RDEP   =    1.550    radius for radial grids                                                     
   RDEPT  =    1.329    core radius for aug-charge                                                  
                                                                                                    
   Atomic configuration                                                                             
    4 entries                                                                                       
     n  l   j            E        occ.                                                              
     1  0  0.50      -514.6923   2.0000                                                             
     2  0  0.50       -23.9615   2.0000                                                             
     2  1  0.50        -9.0305   4.0000                                                             
     3  2  1.50        -9.5241   0.0000                                                             
   Description                                                                                      
     l       E           TYP  RCUT    TYP  RCUT                                                     
     0    -23.9615318     23  1.200                                                                 
     0     -9.5240782     23  1.200                                                                 
     1     -9.0304911     23  1.520                                                                 
     1      8.1634956     23  1.520                                                                 
     2     -9.5240782      7  1.500                                                                 
  local pseudopotential read in
  partial core-charges read in
  partial kinetic energy density read in
  kinetic energy density of atom read in
  atomic valenz-charges read in
  non local Contribution for L=           0  read in
    real space projection operators read in
  non local Contribution for L=           0  read in
    real space projection operators read in
  non local Contribution for L=           1  read in
    real space projection operators read in
  non local Contribution for L=           1  read in
    real space projection operators read in
    PAW grid and wavefunctions read in
 
   number of l-projection  operators is LMAX  =           4
   number of lm-projection operators is LMMAX =           8
 
  PAW_PBE O 08Apr2002                   :
 energy of atom  1       EATOM= -432.3788
 kinetic energy error for atom=    0.0208 (will be added to EATOM!!)
 
 
 POSCAR: O2
  positions in direct lattice
  No initial velocities read in
 exchange correlation table for  LEXCH =        8
   RHO(1)=    0.500       N(1)  =     2000
   RHO(2)=  100.500       N(2)  =     4000

 VTST: version 4.1, (05/19/21)

 CHAIN: initializing optimizer
 
 OPT: Using VASP Conjugate-Gradient optimizer
 CHAIN: Read ICHAIN            0
 
 POSCAR: O2
  positions in direct lattice
  No initial velocities read in
 


--------------------------------------------------------------------------------------------------------


 ion  position               nearest neighbor table
   1  0.527  0.500  0.500-   2 1.15
   2  0.473  0.500  0.500-   1 1.15
 

IMPORTANT INFORMATION: All symmetrisations will be switched off!
NOSYMM: (Re-)initialisation of all symmetry stuff for point group C_1.


----------------------------------------------------------------------------------------

                                     Primitive cell                                     

  volume of cell :    9462.1190

  direct lattice vectors                    reciprocal lattice vectors
    21.150930000  0.000000000  0.000000000     0.047279245  0.000000000  0.000000000
     0.000000000 21.150930000  0.000000000     0.000000000  0.047279245  0.000000000
     0.000000000  0.000000000 21.150930000     0.000000000  0.000000000  0.047279245

  length of vectors
    21.150930000 21.150930000 21.150930000     0.047279245  0.047279245  0.047279245

  position of ions in fractional coordinates (direct lattice)
     0.527207551  0.500000000  0.500000000
     0.472792449  0.500000000  0.500000000

  ion indices of the primitive-cell ions
   primitive index   ion index
                 1           1
                 2           2

----------------------------------------------------------------------------------------

 
 
 KPOINTS: Automatic kpoint scheme                 

Automatic generation of k-mesh.
 Grid dimensions read from file:
 generate k-points for:    1    1    1

 Generating k-lattice:

  Cartesian coordinates                     Fractional coordinates (reciprocal lattice)
     0.047279245  0.000000000  0.000000000     1.000000000  0.000000000  0.000000000
     0.000000000  0.047279245  0.000000000     0.000000000  1.000000000  0.000000000
     0.000000000  0.000000000  0.047279245     0.000000000  0.000000000  1.000000000

  Length of vectors
     0.047279245  0.047279245  0.047279245

  Shift w.r.t. Gamma in fractional coordinates (k-lattice)
     0.000000000  0.000000000  0.000000000

 
 Subroutine IBZKPT returns following result:
 ===========================================
 
 Found      1 irreducible k-points:
 
 Following reciprocal coordinates:
            Coordinates               Weight
  0.000000  0.000000  0.000000      1.000000
 
 Following cartesian coordinates:
            Coordinates               Weight
  0.000000  0.000000  0.000000      1.000000
 


--------------------------------------------------------------------------------------------------------




 Dimension of arrays:
   k-points           NKPTS =      1   k-points in BZ     NKDIM =      1   number of bands    NBANDS=     12
   number of dos      NEDOS =    301   number of ions     NIONS =      2
   non local maximal  LDIM  =      4   non local SUM 2l+1 LMDIM =      8
   total plane-waves  NPLWV = ******
   max r-space proj   IRMAX =      1   max aug-charges    IRDMAX=   5815
   dimension x,y,z NGX =   160 NGY =  160 NGZ =  160
   dimension x,y,z NGXF=   320 NGYF=  320 NGZF=  320
   support grid    NGXF=   320 NGYF=  320 NGZF=  320
   ions per type =               2
   NGX,Y,Z   is equivalent  to a cutoff of  12.58, 12.58, 12.58 a.u.
   NGXF,Y,Z  is equivalent  to a cutoff of  25.15, 25.15, 25.15 a.u.

 SYSTEM =  unknown system                          
 POSCAR =  O2                                      

 Startparameter for this run:
   NWRITE =      2    write-flag & timer
   PREC   = accura    normal or accurate (medium, high low for compatibility)
   ISTART =      0    job   : 0-new  1-cont  2-samecut
   ICHARG =      2    charge: 1-file 2-atom 10-const
   ISPIN  =      2    spin polarized calculation?
   LNONCOLLINEAR =      F non collinear calculations
   LSORBIT =      F    spin-orbit coupling
   INIWAV =      1    electr: 0-lowe 1-rand  2-diag
   LASPH  =      T    aspherical Exc in radial PAW
 Electronic Relaxation 1
   ENCUT  =  520.0 eV  38.22 Ry    6.18 a.u.  39.33 39.33 39.33*2*pi/ulx,y,z
   ENINI  =  520.0     initial cutoff
   ENAUG  =  605.4 eV  augmentation charge cutoff
   NELM   =    100;   NELMIN=  2; NELMDL= -5     # of ELM steps 
   EDIFF  = 0.1E-05   stopping-criterion for ELM
   LREAL  =      F    real-space projection
   NLSPLINE    = F    spline interpolate recip. space projectors
   LCOMPAT=      F    compatible to vasp.4.4
   GGA_COMPAT  = T    GGA compatible to vasp.4.4-vasp.4.6
   LMAXPAW     = -100 max onsite density
   LMAXMIX     =    2 max onsite mixed and CHGCAR
   VOSKOWN=      0    Vosko Wilk Nusair interpolation
   ROPT   =    0.00000
 Ionic relaxation
   EDIFFG = -.2E-01   stopping-criterion for IOM
   NSW    =    500    number of steps for IOM
   NBLOCK =      1;   KBLOCK =    500    inner block; outer block 
   IBRION =      2    ionic relax: 0-MD 1-quasi-New 2-CG
   NFREE  =      1    steps in history (QN), initial steepest desc. (CG)
   ISIF   =      2    stress and relaxation
   IWAVPR =     11    prediction:  0-non 1-charg 2-wave 3-comb
   ISYM   =      0    0-nonsym 1-usesym 2-fastsym
   LCORR  =      T    Harris-Foulkes like correction to forces

   POTIM  = 0.5000    time-step for ionic-motion
   TEIN   =    0.0    initial temperature
   TEBEG  =    0.0;   TEEND  =   0.0 temperature during run
   SMASS  =  -3.00    Nose mass-parameter (am)
   estimated Nose-frequenzy (Omega)   =  0.10E-29 period in steps = 0.13E+47 mass=  -0.102E-25a.u.
   SCALEE = 1.0000    scale energy and forces
   NPACO  =    256;   APACO  = 10.0  distance and # of slots for P.C.
   PSTRESS=    0.0 pullay stress

  Mass of Ions in am
   POMASS =  16.00
  Ionic Valenz
   ZVAL   =   6.00
  Atomic Wigner-Seitz radii
   RWIGS  =  -1.00
  virtual crystal weights 
   VCA    =   1.00
   NELECT =      12.0000    total number of electrons
   NUPDOWN=       0.0000    fix difference up-down

 DOS related values:
   EMIN   =  10.00;   EMAX   =-10.00  energy-range for DOS
   EFERMI =   0.00;   METHOD = LEGACY      
   ISMEAR =     0;   SIGMA  =   0.01  broadening in eV -4-tet -1-fermi 0-gaus

 Electronic relaxation 2 (details)
   IALGO  =     68    algorithm
   LDIAG  =      T    sub-space diagonalisation (order eigenvalues)
   LSUBROT=      F    optimize rotation matrix (better conditioning)
   TURBO    =      0    0=normal 1=particle mesh
   IRESTART =      0    0=no restart 2=restart with 2 vectors
   NREBOOT  =      0    no. of reboots
   NMIN     =      0    reboot dimension
   EREF     =   0.00    reference energy to select bands
   IMIX   =      4    mixing-type and parameters
     AMIX     =   0.40;   BMIX     =  1.00
     AMIX_MAG =   1.60;   BMIX_MAG =  1.00
     AMIN     =   0.10
     WC   =   100.;   INIMIX=   1;  MIXPRE=   1;  MAXMIX= -45

 Intra band minimization:
   WEIMIN = 0.0010     energy-eigenvalue tresh-hold
   EBREAK =  0.21E-07  absolut break condition
   DEPER  =   0.30     relativ break condition  

   TIME   =   0.40     timestep for ELM

  volume/ion in A,a.u.               =    4731.06     31926.76
  Fermi-wavevector in a.u.,A,eV,Ry     =   0.177204  0.334866  0.427238  0.031401
  Thomas-Fermi vector in A             =   0.897615
 
 Write flags
   LWAVE        =      F    write WAVECAR
   LDOWNSAMPLE  =      F    k-point downsampling of WAVECAR
   LCHARG       =      F    write CHGCAR
   LVTOT        =      F    write LOCPOT, total local potential
   LVHAR        =      F    write LOCPOT, Hartree potential only
   LELF         =      F    write electronic localiz. function (ELF)
   LORBIT       =     11    0 simple, 1 ext, 2 COOP (PROOUT), +10 PAW based schemes


 Dipole corrections
   LMONO  =      F    monopole corrections only (constant potential shift)
   LDIPOL =      F    correct potential (dipole corrections)
   IDIPOL =      0    1-x, 2-y, 3-z, 4-all directions 
   EPSILON=  1.0000000 bulk dielectric constant

 Exchange correlation treatment:
   GGA     =    --    GGA type
   LEXCH   =     8    internal setting for exchange type
   LIBXC   =     F    Libxc                    
   VOSKOWN =     0    Vosko Wilk Nusair interpolation
   LHFCALC =     F    Hartree Fock is set to
   LHFONE  =     F    Hartree Fock one center treatment
   AEXX    =    0.0000 exact exchange contribution

 Linear response parameters
   LEPSILON=     F    determine dielectric tensor
   LRPA    =     F    only Hartree local field effects (RPA)
   LNABLA  =     F    use nabla operator in PAW spheres
   LVEL    =     F    velocity operator in full k-point grid
   CSHIFT  =0.1000    complex shift for real part using Kramers Kronig
   OMEGAMAX=  -1.0    maximum frequency
   DEG_THRESHOLD= 0.2000000E-02 threshold for treating states as degnerate
   RTIME   =   -0.100 relaxation time in fs
  (WPLASMAI=    0.000 imaginary part of plasma frequency in eV, 0.658/RTIME)
   DFIELD  = 0.0000000 0.0000000 0.0000000 field for delta impulse in time
 
  Optional k-point grid parameters
   LKPOINTS_OPT  =     F    use optional k-point grid
   KPOINTS_OPT_MODE=     1    mode for optional k-point grid
 
 Orbital magnetization related:
   ORBITALMAG=     F  switch on orbital magnetization
   LCHIMAG   =     F  perturbation theory with respect to B field
   DQ        =  0.001000  dq finite difference perturbation B field
   LLRAUG    =     F  two centre corrections for induced B field
   LBONE     =     F  B-component reconstruction in AE one-centre
   LVGVCALC  =     T  calculate vGv susceptibility
   LVGVAPPL  =     F  apply vGv susceptibility instead of pGv for G=0

 Random number generation:
   RANDOM_GENERATOR = DEFAULT
   PCG_SEED         = not used


--------------------------------------------------------------------------------------------------------


 conjugate gradient relaxation of ions
 charge density and potential will be updated during run
 spin polarized calculation
 RMM-DIIS sequential band-by-band and
  variant of blocked Davidson during initial phase
 perform sub-space diagonalisation
    before iterative eigenvector-optimisation
 modified Broyden-mixing scheme, WC =      100.0
 initial mixing is a Kerker type mixing with AMIX =  0.4000 and BMIX =      1.0000
 Hartree-type preconditioning will be used
 using additional bands            6
 reciprocal scheme for non local part
 use partial core corrections
 calculate Harris-corrections to forces 
   (improved forces if not selfconsistent)
 use gradient corrections 
 use of overlap-Matrix (Vanderbilt PP)
 Gauss-broadening in eV      SIGMA  =   0.01


--------------------------------------------------------------------------------------------------------


  energy-cutoff  :      520.00
  volume of cell :     9462.12
      direct lattice vectors                 reciprocal lattice vectors
    21.150930000  0.000000000  0.000000000     0.047279245  0.000000000  0.000000000
     0.000000000 21.150930000  0.000000000     0.000000000  0.047279245  0.000000000
     0.000000000  0.000000000 21.150930000     0.000000000  0.000000000  0.047279245

  length of vectors
    21.150930000 21.150930000 21.150930000     0.047279245  0.047279245  0.047279245


 
 k-points in units of 2pi/SCALE and weight: Automatic kpoint scheme                 
   0.00000000  0.00000000  0.00000000       1.000
 
 k-points in reciprocal lattice and weights: Automatic kpoint scheme                 
   0.00000000  0.00000000  0.00000000       1.000
 
 position of ions in fractional coordinates (direct lattice) 
   0.52720755  0.50000000  0.50000000
   0.47279245  0.50000000  0.50000000
 
 position of ions in cartesian coordinates  (Angst):
  11.15093000 10.57546500 10.57546500
  10.00000000 10.57546500 10.57546500
 


--------------------------------------------------------------------------------------------------------


 k-point   1 :   0.0000 0.0000 0.0000  plane waves:  254823

 maximum and minimum number of plane-waves per node :     31868    31840

 maximum number of plane-waves:    254823
 maximum index in each direction: 
   IXMAX=   39   IYMAX=   39   IZMAX=   39
   IXMIN=  -39   IYMIN=  -39   IZMIN=  -39


 parallel 3D FFT for wavefunctions:
    minimum data exchange during FFTs selected (reduces bandwidth)
 parallel 3D FFT for charge:
    minimum data exchange during FFTs selected (reduces bandwidth)


 total amount of memory used by VASP MPI-rank0   200945. kBytes
=======================================================================

   base      :      30000. kBytes
   nonl-proj :       3058. kBytes
   fftplans  :      49674. kBytes
   grid      :     115148. kBytes
   one-center:          6. kBytes
   wavefun   :       3059. kBytes
 
     INWAV:  cpu time      0.0000: real time      0.0001
 Broyden mixing: mesh for mixing (old mesh)
   NGX = 79   NGY = 79   NGZ = 79
  (NGX  =320   NGY  =320   NGZ  =320)
  gives a total of 493039 points

 initial charge density was supplied:
 charge density of overlapping atoms calculated
 number of electron      12.0000000 magnetization       0.0000000
 keeping initial charge density in first step


--------------------------------------------------------------------------------------------------------


 Maximum index for augmentation-charges          137 (set IRDMAX)


--------------------------------------------------------------------------------------------------------


 First call to EWALD:  gamma=   0.084
 Maximum number of real-space cells 3x 3x 3
 Maximum number of reciprocal cells 3x 3x 3

    FEWALD:  cpu time      0.0010: real time      0.0010


--------------------------------------- Ionic step        1  -------------------------------------------




--------------------------------------- Iteration      1(   1)  ---------------------------------------


    POTLOK:  cpu time      1.6550: real time      1.6579
    SETDIJ:  cpu time      0.1223: real time      0.1224
     EDDAV:  cpu time      1.1280: real time      1.1304
       DOS:  cpu time      0.0003: real time      0.0003
    --------------------------------------------
      LOOP:  cpu time      2.9056: real time      2.9110

 eigenvalue-minimisations  :    80
 total energy-change (2. order) : 0.1162824E+03  (-0.1965038E+03)
 number of electron      12.0000000 magnetization       0.0000000
 augmentation part       12.0000000 magnetization       0.0000000

 Free energy of the ion-electron system (eV)
  ---------------------------------------------------
  alpha Z        PSCENC =         0.05874137
  Ewald energy   TEWEN  =       311.48458658
  -Hartree energ DENC   =     -1030.25824970
  -exchange      EXHF   =         0.00000000
  -V(xc)+E(xc)   XCENC  =        54.82371620
  PAW double counting   =       693.09895092     -696.69629226
  entropy T*S    EENTRO =        -0.00000000
  eigenvalues    EBANDS =       -80.94499615
  atomic energy  EATOM  =       864.71597305
  Solvation  Ediel_sol  =         0.00000000
  ---------------------------------------------------
  free energy    TOTEN  =       116.28243001 eV

  energy without entropy =      116.28243001  energy(sigma->0) =      116.28243001


--------------------------------------------------------------------------------------------------------




--------------------------------------- Iteration      1(   2)  ---------------------------------------


     EDDAV:  cpu time      0.9316: real time      0.9333
       DOS:  cpu time      0.0001: real time      0.0001
    --------------------------------------------
      LOOP:  cpu time      0.9317: real time      0.9334

 eigenvalue-minimisations  :    64
 total energy-change (2. order) :-0.8253362E+02  (-0.8222132E+02)
 number of electron      12.0000000 magnetization       0.0000000
 augmentation part       12.0000000 magnetization       0.0000000

 Free energy of the ion-electron system (eV)
  ---------------------------------------------------
  alpha Z        PSCENC =         0.05874137
  Ewald energy   TEWEN  =       311.48458658
  -Hartree energ DENC   =     -1030.25824970
  -exchange      EXHF   =         0.00000000
  -V(xc)+E(xc)   XCENC  =        54.82371620
  PAW double counting   =       693.09895092     -696.69629226
  entropy T*S    EENTRO =        -0.00000000
  eigenvalues    EBANDS =      -163.47861589
  atomic energy  EATOM  =       864.71597305
  Solvation  Ediel_sol  =         0.00000000
  ---------------------------------------------------
  free energy    TOTEN  =        33.74881027 eV

  energy without entropy =       33.74881027  energy(sigma->0) =       33.74881027


--------------------------------------------------------------------------------------------------------




--------------------------------------- Iteration      1(   3)  ---------------------------------------


     EDDAV:  cpu time      0.9316: real time      0.9326
       DOS:  cpu time      0.0006: real time      0.0006
    --------------------------------------------
      LOOP:  cpu time      0.9322: real time      0.9332

 eigenvalue-minimisations  :    64
 total energy-change (2. order) :-0.2818348E+02  (-0.2815302E+02)
 number of electron      12.0000000 magnetization       0.0000000
 augmentation part       12.0000000 magnetization       0.0000000

 Free energy of the ion-electron system (eV)
  ---------------------------------------------------
  alpha Z        PSCENC =         0.05874137
  Ewald energy   TEWEN  =       311.48458658
  -Hartree energ DENC   =     -1030.25824970
  -exchange      EXHF   =         0.00000000
  -V(xc)+E(xc)   XCENC  =        54.82371620
  PAW double counting   =       693.09895092     -696.69629226
  entropy T*S    EENTRO =        -0.00000000
  eigenvalues    EBANDS =      -191.66209941
  atomic energy  EATOM  =       864.71597305
  Solvation  Ediel_sol  =         0.00000000
  ---------------------------------------------------
  free energy    TOTEN  =         5.56532675 eV

  energy without entropy =        5.56532675  energy(sigma->0) =        5.56532675


--------------------------------------------------------------------------------------------------------




--------------------------------------- Iteration      1(   4)  ---------------------------------------


     EDDAV:  cpu time      0.9331: real time      0.9343
       DOS:  cpu time      0.0001: real time      0.0001
    --------------------------------------------
      LOOP:  cpu time      0.9333: real time      0.9344

 eigenvalue-minimisations  :    64
 total energy-change (2. order) :-0.1049393E+02  (-0.2384396E+01)
 number of electron      12.0000000 magnetization       0.0000000
 augmentation part       12.0000000 magnetization       0.0000000

 Free energy of the ion-electron system (eV)
  ---------------------------------------------------
  alpha Z        PSCENC =         0.05874137
  Ewald energy   TEWEN  =       311.48458658
  -Hartree energ DENC   =     -1030.25824970
  -exchange      EXHF   =         0.00000000
  -V(xc)+E(xc)   XCENC  =        54.82371620
  PAW double counting   =       693.09895092     -696.69629226
  entropy T*S    EENTRO =        -0.00000000
  eigenvalues    EBANDS =      -202.15602512
  atomic energy  EATOM  =       864.71597305
  Solvation  Ediel_sol  =         0.00000000
  ---------------------------------------------------
  free energy    TOTEN  =        -4.92859895 eV

  energy without entropy =       -4.92859895  energy(sigma->0) =       -4.92859895


--------------------------------------------------------------------------------------------------------




--------------------------------------- Iteration      1(   5)  ---------------------------------------


     EDDAV:  cpu time      0.8829: real time      0.8840
       DOS:  cpu time      0.0004: real time      0.0004
    CHARGE:  cpu time      0.2201: real time      0.2206
    MIXING:  cpu time      0.0443: real time      0.0446
    --------------------------------------------
      LOOP:  cpu time      1.1477: real time      1.1496

 eigenvalue-minimisations  :    60
 total energy-change (2. order) :-0.3813027E+01  (-0.3812302E+01)
 number of electron      11.9999995 magnetization      -0.0000000
 augmentation part        1.2305443 magnetization       0.0022456

 Broyden mixing:
  rms(total) = 0.65993E+00    rms(broyden)= 0.65757E+00
  rms(prec ) = 0.67306E+00
  weight for this iteration     100.00

 Free energy of the ion-electron system (eV)
  ---------------------------------------------------
  alpha Z        PSCENC =         0.05874137
  Ewald energy   TEWEN  =       311.48458658
  -Hartree energ DENC   =     -1030.25824970
  -exchange      EXHF   =         0.00000000
  -V(xc)+E(xc)   XCENC  =        54.82371620
  PAW double counting   =       693.09895092     -696.69629226
  entropy T*S    EENTRO =        -0.00000448
  eigenvalues    EBANDS =      -205.96904769
  atomic energy  EATOM  =       864.71597305
  Solvation  Ediel_sol  =         0.00000000
  ---------------------------------------------------
  free energy    TOTEN  =        -8.74162601 eV

  energy without entropy =       -8.74162153  energy(sigma->0) =       -8.74162377


--------------------------------------------------------------------------------------------------------




--------------------------------------- Iteration      1(   6)  ---------------------------------------


    POTLOK:  cpu time      1.5855: real time      1.5872
    SETDIJ:  cpu time      0.1519: real time      0.1520
    EDDIAG:  cpu time      0.2091: real time      0.2093
  RMM-DIIS:  cpu time      0.8190: real time      0.8210
    ORTHCH:  cpu time      0.0042: real time      0.0042
       DOS:  cpu time      0.0001: real time      0.0001
    CHARGE:  cpu time      0.2093: real time      0.2096
    MIXING:  cpu time      0.0420: real time      0.0420
    --------------------------------------------
      LOOP:  cpu time      3.0211: real time      3.0254

 eigenvalue-minimisations  :    48
 total energy-change (2. order) :-0.3441023E+00  (-0.1386928E+00)
 number of electron      11.9999995 magnetization      -0.0000000
 augmentation part        1.2190721 magnetization       0.0008395

 Broyden mixing:
  rms(total) = 0.36314E+00    rms(broyden)= 0.35849E+00
  rms(prec ) = 0.36536E+00
  weight for this iteration     100.00

 eigenvalues of (default mixing * dielectric matrix)
  average eigenvalue GAMMA=   1.2263
  1.2263

 Free energy of the ion-electron system (eV)
  ---------------------------------------------------
  alpha Z        PSCENC =         0.05874137
  Ewald energy   TEWEN  =       311.48458658
  -Hartree energ DENC   =     -1035.59452947
  -exchange      EXHF   =         0.00000000
  -V(xc)+E(xc)   XCENC  =        55.39150555
  PAW double counting   =       789.34460371     -793.01618114
  entropy T*S    EENTRO =        -0.00000000
  eigenvalues    EBANDS =      -201.47042799
  atomic energy  EATOM  =       864.71597305
  Solvation  Ediel_sol  =         0.00000000
  ---------------------------------------------------
  free energy    TOTEN  =        -9.08572836 eV

  energy without entropy =       -9.08572836  energy(sigma->0) =       -9.08572836


--------------------------------------------------------------------------------------------------------




--------------------------------------- Iteration      1(   7)  ---------------------------------------


    POTLOK:  cpu time      1.5798: real time      1.5814
    SETDIJ:  cpu time      0.1532: real time      0.1534
    EDDIAG:  cpu time      0.2124: real time      0.2126
  RMM-DIIS:  cpu time      0.8206: real time      0.8215
    ORTHCH:  cpu time      0.0042: real time      0.0042
       DOS:  cpu time      0.0001: real time      0.0001
    CHARGE:  cpu time      0.2052: real time      0.2053
    MIXING:  cpu time      0.0422: real time      0.0422
    --------------------------------------------
      LOOP:  cpu time      3.0176: real time      3.0207

 eigenvalue-minimisations  :    49
 total energy-change (2. order) :-0.1064018E-02  (-0.6936480E-01)
 number of electron      11.9999995 magnetization      -0.0000000
 augmentation part        1.2080633 magnetization       0.0008042

 Broyden mixing:
  rms(total) = 0.17020E+00    rms(broyden)= 0.16962E+00
  rms(prec ) = 0.17253E+00
  weight for this iteration     100.00

 eigenvalues of (default mixing * dielectric matrix)
  average eigenvalue GAMMA=   0.9177
  0.9177  0.9177

 Free energy of the ion-electron system (eV)
  ---------------------------------------------------
  alpha Z        PSCENC =         0.05874137
  Ewald energy   TEWEN  =       311.48458658
  -Hartree energ DENC   =     -1038.18460195
  -exchange      EXHF   =         0.00000000
  -V(xc)+E(xc)   XCENC  =        55.72777920
  PAW double counting   =       851.94650024     -855.59554948
  entropy T*S    EENTRO =        -0.00000000
  eigenvalues    EBANDS =      -199.24022137
  atomic energy  EATOM  =       864.71597305
  Solvation  Ediel_sol  =         0.00000000
  ---------------------------------------------------
  free energy    TOTEN  =        -9.08679237 eV

  energy without entropy =       -9.08679237  energy(sigma->0) =       -9.08679237


--------------------------------------------------------------------------------------------------------




--------------------------------------- Iteration      1(   8)  ---------------------------------------


    POTLOK:  cpu time      1.5662: real time      1.5676
    SETDIJ:  cpu time      0.1470: real time      0.1471
    EDDIAG:  cpu time      0.2117: real time      0.2119
  RMM-DIIS:  cpu time      0.8251: real time      0.8259
    ORTHCH:  cpu time      0.0040: real time      0.0041
       DOS:  cpu time      0.0001: real time      0.0001
    CHARGE:  cpu time      0.2107: real time      0.2111
    MIXING:  cpu time      0.0376: real time      0.0376
    --------------------------------------------
      LOOP:  cpu time      3.0024: real time      3.0054

 eigenvalue-minimisations  :    49
 total energy-change (2. order) :-0.9451705E-01  (-0.1308467E-01)
 number of electron      11.9999995 magnetization      -0.0000000
 augmentation part        1.2027958 magnetization       0.0009775

 Broyden mixing:
  rms(total) = 0.10515E+00    rms(broyden)= 0.10512E+00
  rms(prec ) = 0.10681E+00
  weight for this iteration     100.00

 eigenvalues of (default mixing * dielectric matrix)
  average eigenvalue GAMMA=   1.2197
  1.8940  1.0719  0.6933

 Free energy of the ion-electron system (eV)
  ---------------------------------------------------
  alpha Z        PSCENC =         0.05874137
  Ewald energy   TEWEN  =       311.48458658
  -Hartree energ DENC   =     -1038.93425018
  -exchange      EXHF   =         0.00000000
  -V(xc)+E(xc)   XCENC  =        55.65353186
  PAW double counting   =       885.02771120     -888.74363856
  entropy T*S    EENTRO =        -0.00000000
  eigenvalues    EBANDS =      -198.44396474
  atomic energy  EATOM  =       864.71597305
  Solvation  Ediel_sol  =         0.00000000
  ---------------------------------------------------
  free energy    TOTEN  =        -9.18130943 eV

  energy without entropy =       -9.18130943  energy(sigma->0) =       -9.18130943


--------------------------------------------------------------------------------------------------------




--------------------------------------- Iteration      1(   9)  ---------------------------------------


    POTLOK:  cpu time      1.5800: real time      1.5815
    SETDIJ:  cpu time      0.1524: real time      0.1525
    EDDIAG:  cpu time      0.2122: real time      0.2124
  RMM-DIIS:  cpu time      0.8164: real time      0.8170
    ORTHCH:  cpu time      0.0041: real time      0.0041
       DOS:  cpu time      0.0001: real time      0.0001
    CHARGE:  cpu time      0.2046: real time      0.2048
    MIXING:  cpu time      0.0441: real time      0.0442
    --------------------------------------------
      LOOP:  cpu time      3.0139: real time      3.0166

 eigenvalue-minimisations  :    49
 total energy-change (2. order) :-0.9057987E-02  (-0.5118819E-02)
 number of electron      11.9999995 magnetization      -0.0000000
 augmentation part        1.1987712 magnetization       0.0001056

 Broyden mixing:
  rms(total) = 0.24720E-01    rms(broyden)= 0.24692E-01
  rms(prec ) = 0.25151E-01
  weight for this iteration     100.00

 eigenvalues of (default mixing * dielectric matrix)
  average eigenvalue GAMMA=   1.1625
  2.0641  1.1136  0.7362  0.7362

 Free energy of the ion-electron system (eV)
  ---------------------------------------------------
  alpha Z        PSCENC =         0.05874137
  Ewald energy   TEWEN  =       311.48458658
  -Hartree energ DENC   =     -1039.77039057
  -exchange      EXHF   =         0.00000000
  -V(xc)+E(xc)   XCENC  =        55.73555538
  PAW double counting   =       930.51440891     -934.20700700
  entropy T*S    EENTRO =        -0.00000000
  eigenvalues    EBANDS =      -197.72223513
  atomic energy  EATOM  =       864.71597305
  Solvation  Ediel_sol  =         0.00000000
  ---------------------------------------------------
  free energy    TOTEN  =        -9.19036742 eV

  energy without entropy =       -9.19036742  energy(sigma->0) =       -9.19036742


--------------------------------------------------------------------------------------------------------




--------------------------------------- Iteration      1(  10)  ---------------------------------------


    POTLOK:  cpu time      1.5588: real time      1.5603
    SETDIJ:  cpu time      0.1337: real time      0.1337
    EDDIAG:  cpu time      0.2093: real time      0.2095
  RMM-DIIS:  cpu time      0.8407: real time      0.8414
    ORTHCH:  cpu time      0.0041: real time      0.0041
       DOS:  cpu time      0.0001: real time      0.0001
    CHARGE:  cpu time      0.2037: real time      0.2039
    MIXING:  cpu time      0.0513: real time      0.0513
    --------------------------------------------
      LOOP:  cpu time      3.0017: real time      3.0044

 eigenvalue-minimisations  :    50
 total energy-change (2. order) :-0.3330767E-02  (-0.7649764E-03)
 number of electron      11.9999995 magnetization      -0.0000000
 augmentation part        1.1976771 magnetization      -0.0001006

 Broyden mixing:
  rms(total) = 0.12356E-01    rms(broyden)= 0.12352E-01
  rms(prec ) = 0.12653E-01
  weight for this iteration     100.00

 eigenvalues of (default mixing * dielectric matrix)
  average eigenvalue GAMMA=   1.2931
  2.3613  1.7189  1.0184  0.7353  0.6319

 Free energy of the ion-electron system (eV)
  ---------------------------------------------------
  alpha Z        PSCENC =         0.05874137
  Ewald energy   TEWEN  =       311.48458658
  -Hartree energ DENC   =     -1039.77992650
  -exchange      EXHF   =         0.00000000
  -V(xc)+E(xc)   XCENC  =        55.73780694
  PAW double counting   =       940.04538363     -943.73641099
  entropy T*S    EENTRO =        -0.00000000
  eigenvalues    EBANDS =      -197.71985226
  atomic energy  EATOM  =       864.71597305
  Solvation  Ediel_sol  =         0.00000000
  ---------------------------------------------------
  free energy    TOTEN  =        -9.19369818 eV

  energy without entropy =       -9.19369818  energy(sigma->0) =       -9.19369818


--------------------------------------------------------------------------------------------------------




--------------------------------------- Iteration      1(  11)  ---------------------------------------


    POTLOK:  cpu time      1.5740: real time      1.5755
    SETDIJ:  cpu time      0.1321: real time      0.1322
    EDDIAG:  cpu time      0.2116: real time      0.2118
  RMM-DIIS:  cpu time      0.8112: real time      0.8119
    ORTHCH:  cpu time      0.0041: real time      0.0041
       DOS:  cpu time      0.0001: real time      0.0001
    CHARGE:  cpu time      0.2098: real time      0.2100
    MIXING:  cpu time      0.0400: real time      0.0401
    --------------------------------------------
      LOOP:  cpu time      2.9829: real time      2.9856

 eigenvalue-minimisations  :    49
 total energy-change (2. order) :-0.1910739E-02  (-0.1370016E-03)
 number of electron      11.9999995 magnetization      -0.0000000
 augmentation part        1.1977586 magnetization       0.0000052

 Broyden mixing:
  rms(total) = 0.38807E-02    rms(broyden)= 0.38768E-02
  rms(prec ) = 0.41333E-02
  weight for this iteration     100.00

 eigenvalues of (default mixing * dielectric matrix)
  average eigenvalue GAMMA=   1.2442
  2.3484  1.8921  0.9752  0.8520  0.6986  0.6986

 Free energy of the ion-electron system (eV)
  ---------------------------------------------------
  alpha Z        PSCENC =         0.05874137
  Ewald energy   TEWEN  =       311.48458658
  -Hartree energ DENC   =     -1039.77446491
  -exchange      EXHF   =         0.00000000
  -V(xc)+E(xc)   XCENC  =        55.73026185
  PAW double counting   =       944.85042811     -948.52353909
  entropy T*S    EENTRO =        -0.00000000
  eigenvalues    EBANDS =      -197.73759588
  atomic energy  EATOM  =       864.71597305
  Solvation  Ediel_sol  =         0.00000000
  ---------------------------------------------------
  free energy    TOTEN  =        -9.19560892 eV

  energy without entropy =       -9.19560892  energy(sigma->0) =       -9.19560892


--------------------------------------------------------------------------------------------------------




--------------------------------------- Iteration      1(  12)  ---------------------------------------


    POTLOK:  cpu time      1.5594: real time      1.5608
    SETDIJ:  cpu time      0.1333: real time      0.1334
    EDDIAG:  cpu time      0.2075: real time      0.2077
  RMM-DIIS:  cpu time      0.8378: real time      0.8385
    ORTHCH:  cpu time      0.0041: real time      0.0041
       DOS:  cpu time      0.0001: real time      0.0001
    CHARGE:  cpu time      0.2088: real time      0.2090
    MIXING:  cpu time      0.0419: real time      0.0419
    --------------------------------------------
      LOOP:  cpu time      2.9927: real time      2.9954

 eigenvalue-minimisations  :    50
 total energy-change (2. order) :-0.4152167E-03  (-0.3713202E-04)
 number of electron      11.9999995 magnetization      -0.0000000
 augmentation part        1.1976541 magnetization      -0.0000303

 Broyden mixing:
  rms(total) = 0.20153E-02    rms(broyden)= 0.20140E-02
  rms(prec ) = 0.22501E-02
  weight for this iteration     100.00

 eigenvalues of (default mixing * dielectric matrix)
  average eigenvalue GAMMA=   1.2709
  2.2843  2.2843  1.1710  1.1124  0.6876  0.6876  0.6694

 Free energy of the ion-electron system (eV)
  ---------------------------------------------------
  alpha Z        PSCENC =         0.05874137
  Ewald energy   TEWEN  =       311.48458658
  -Hartree energ DENC   =     -1039.83508573
  -exchange      EXHF   =         0.00000000
  -V(xc)+E(xc)   XCENC  =        55.73038105
  PAW double counting   =       945.01772070     -948.68773992
  entropy T*S    EENTRO =        -0.00000000
  eigenvalues    EBANDS =      -197.68060124
  atomic energy  EATOM  =       864.71597305
  Solvation  Ediel_sol  =         0.00000000
  ---------------------------------------------------
  free energy    TOTEN  =        -9.19602414 eV

  energy without entropy =       -9.19602414  energy(sigma->0) =       -9.19602414


--------------------------------------------------------------------------------------------------------




--------------------------------------- Iteration      1(  13)  ---------------------------------------


    POTLOK:  cpu time      1.5637: real time      1.5684
    SETDIJ:  cpu time      0.1314: real time      0.1314
    EDDIAG:  cpu time      0.2116: real time      0.2118
  RMM-DIIS:  cpu time      0.8402: real time      0.8409
    ORTHCH:  cpu time      0.0047: real time      0.0047
       DOS:  cpu time      0.0001: real time      0.0001
    CHARGE:  cpu time      0.2040: real time      0.2042
    MIXING:  cpu time      0.0484: real time      0.0484
    --------------------------------------------
      LOOP:  cpu time      3.0041: real time      3.0100

 eigenvalue-minimisations  :    50
 total energy-change (2. order) :-0.4128761E-03  (-0.9366968E-05)
 number of electron      11.9999995 magnetization      -0.0000000
 augmentation part        1.1975218 magnetization      -0.0000113

 Broyden mixing:
  rms(total) = 0.76163E-03    rms(broyden)= 0.76068E-03
  rms(prec ) = 0.10163E-02
  weight for this iteration     100.00

 eigenvalues of (default mixing * dielectric matrix)
  average eigenvalue GAMMA=   1.3107
  2.4781  2.4781  1.5743  1.0196  0.7865  0.7865  0.7300  0.6326

 Free energy of the ion-electron system (eV)
  ---------------------------------------------------
  alpha Z        PSCENC =         0.05874137
  Ewald energy   TEWEN  =       311.48458658
  -Hartree energ DENC   =     -1039.91308422
  -exchange      EXHF   =         0.00000000
  -V(xc)+E(xc)   XCENC  =        55.73215845
  PAW double counting   =       945.21185752     -948.87787239
  entropy T*S    EENTRO =        -0.00000000
  eigenvalues    EBANDS =      -197.60879737
  atomic energy  EATOM  =       864.71597305
  Solvation  Ediel_sol  =         0.00000000
  ---------------------------------------------------
  free energy    TOTEN  =        -9.19643701 eV

  energy without entropy =       -9.19643701  energy(sigma->0) =       -9.19643701


--------------------------------------------------------------------------------------------------------




--------------------------------------- Iteration      1(  14)  ---------------------------------------


    POTLOK:  cpu time      1.5625: real time      1.5638
    SETDIJ:  cpu time      0.1332: real time      0.1333
    EDDIAG:  cpu time      0.2081: real time      0.2083
  RMM-DIIS:  cpu time      0.8259: real time      0.8266
    ORTHCH:  cpu time      0.0041: real time      0.0041
       DOS:  cpu time      0.0001: real time      0.0001
    CHARGE:  cpu time      0.2072: real time      0.2074
    MIXING:  cpu time      0.0460: real time      0.0460
    --------------------------------------------
      LOOP:  cpu time      2.9871: real time      2.9896

 eigenvalue-minimisations  :    49
 total energy-change (2. order) :-0.2555822E-03  (-0.2520057E-05)
 number of electron      11.9999995 magnetization      -0.0000000
 augmentation part        1.1974291 magnetization      -0.0000056

 Broyden mixing:
  rms(total) = 0.45363E-03    rms(broyden)= 0.45323E-03
  rms(prec ) = 0.70105E-03
  weight for this iteration     100.00

 eigenvalues of (default mixing * dielectric matrix)
  average eigenvalue GAMMA=   1.2560
  2.4798  2.4798  1.6147  0.9085  0.9085  0.8269  0.8269  0.6295  0.6295

 Free energy of the ion-electron system (eV)
  ---------------------------------------------------
  alpha Z        PSCENC =         0.05874137
  Ewald energy   TEWEN  =       311.48458658
  -Hartree energ DENC   =     -1039.95013744
  -exchange      EXHF   =         0.00000000
  -V(xc)+E(xc)   XCENC  =        55.73320265
  PAW double counting   =       945.33139088     -948.99680519
  entropy T*S    EENTRO =        -0.00000000
  eigenvalues    EBANDS =      -197.57364449
  atomic energy  EATOM  =       864.71597305
  Solvation  Ediel_sol  =         0.00000000
  ---------------------------------------------------
  free energy    TOTEN  =        -9.19669260 eV

  energy without entropy =       -9.19669260  energy(sigma->0) =       -9.19669260


--------------------------------------------------------------------------------------------------------




--------------------------------------- Iteration      1(  15)  ---------------------------------------


    POTLOK:  cpu time      1.5591: real time      1.5604
    SETDIJ:  cpu time      0.1340: real time      0.1341
    EDDIAG:  cpu time      0.2115: real time      0.2117
  RMM-DIIS:  cpu time      0.8050: real time      0.8057
    ORTHCH:  cpu time      0.0041: real time      0.0041
       DOS:  cpu time      0.0001: real time      0.0001
    CHARGE:  cpu time      0.2007: real time      0.2008
    MIXING:  cpu time      0.0550: real time      0.0551
    --------------------------------------------
      LOOP:  cpu time      2.9695: real time      2.9720

 eigenvalue-minimisations  :    47
 total energy-change (2. order) :-0.1213759E-03  (-0.8584941E-06)
 number of electron      11.9999995 magnetization      -0.0000000
 augmentation part        1.1974033 magnetization      -0.0000029

 Broyden mixing:
  rms(total) = 0.30295E-03    rms(broyden)= 0.30276E-03
  rms(prec ) = 0.54235E-03
  weight for this iteration     100.00

 eigenvalues of (default mixing * dielectric matrix)
  average eigenvalue GAMMA=   1.2735
  2.5288  2.5288  1.6252  1.1715  1.1715  0.8525  0.8525  0.6820  0.6613  0.6613

 Free energy of the ion-electron system (eV)
  ---------------------------------------------------
  alpha Z        PSCENC =         0.05874137
  Ewald energy   TEWEN  =       311.48458658
  -Hartree energ DENC   =     -1039.95969938
  -exchange      EXHF   =         0.00000000
  -V(xc)+E(xc)   XCENC  =        55.73317844
  PAW double counting   =       945.32148182     -948.98657086
  entropy T*S    EENTRO =        -0.00000000
  eigenvalues    EBANDS =      -197.56450499
  atomic energy  EATOM  =       864.71597305
  Solvation  Ediel_sol  =         0.00000000
  ---------------------------------------------------
  free energy    TOTEN  =        -9.19681397 eV

  energy without entropy =       -9.19681397  energy(sigma->0) =       -9.19681397


--------------------------------------------------------------------------------------------------------




--------------------------------------- Iteration      1(  16)  ---------------------------------------


    POTLOK:  cpu time      1.5659: real time      1.5672
    SETDIJ:  cpu time      0.1282: real time      0.1282
    EDDIAG:  cpu time      0.2081: real time      0.2083
  RMM-DIIS:  cpu time      0.7882: real time      0.7889
    ORTHCH:  cpu time      0.0041: real time      0.0041
       DOS:  cpu time      0.0001: real time      0.0001
    CHARGE:  cpu time      0.2016: real time      0.2018
    MIXING:  cpu time      0.0561: real time      0.0562
    --------------------------------------------
      LOOP:  cpu time      2.9523: real time      2.9547

 eigenvalue-minimisations  :    47
 total energy-change (2. order) :-0.2339326E-03  (-0.1017313E-05)
 number of electron      11.9999995 magnetization      -0.0000000
 augmentation part        1.1973871 magnetization      -0.0000043

 Broyden mixing:
  rms(total) = 0.19386E-03    rms(broyden)= 0.19358E-03
  rms(prec ) = 0.34258E-03
  weight for this iteration     100.00

 eigenvalues of (default mixing * dielectric matrix)
  average eigenvalue GAMMA=   1.3201
  2.9100  2.5899  1.9760  1.6006  0.9863  0.9863  0.7074  0.7074  0.6318  0.7124
  0.7124

 Free energy of the ion-electron system (eV)
  ---------------------------------------------------
  alpha Z        PSCENC =         0.05874137
  Ewald energy   TEWEN  =       311.48458658
  -Hartree energ DENC   =     -1039.98565082
  -exchange      EXHF   =         0.00000000
  -V(xc)+E(xc)   XCENC  =        55.73316512
  PAW double counting   =       945.24122851     -948.90563356
  entropy T*S    EENTRO =        -0.00000000
  eigenvalues    EBANDS =      -197.53945815
  atomic energy  EATOM  =       864.71597305
  Solvation  Ediel_sol  =         0.00000000
  ---------------------------------------------------
  free energy    TOTEN  =        -9.19704790 eV

  energy without entropy =       -9.19704790  energy(sigma->0) =       -9.19704790


--------------------------------------------------------------------------------------------------------




--------------------------------------- Iteration      1(  17)  ---------------------------------------


    POTLOK:  cpu time      1.5617: real time      1.5630
    SETDIJ:  cpu time      0.1324: real time      0.1325
    EDDIAG:  cpu time      0.2121: real time      0.2123
  RMM-DIIS:  cpu time      0.7736: real time      0.7743
    ORTHCH:  cpu time      0.0042: real time      0.0042
       DOS:  cpu time      0.0001: real time      0.0001
    CHARGE:  cpu time      0.2058: real time      0.2060
    MIXING:  cpu time      0.0560: real time      0.0561
    --------------------------------------------
      LOOP:  cpu time      2.9459: real time      2.9484

 eigenvalue-minimisations  :    46
 total energy-change (2. order) :-0.1205342E-03  (-0.9346824E-06)
 number of electron      11.9999995 magnetization      -0.0000000
 augmentation part        1.1973766 magnetization      -0.0000040

 Broyden mixing:
  rms(total) = 0.15288E-03    rms(broyden)= 0.15259E-03
  rms(prec ) = 0.23394E-03
  weight for this iteration     100.00

 eigenvalues of (default mixing * dielectric matrix)
  average eigenvalue GAMMA=   1.3649
  3.6447  2.5384  2.0791  1.6241  1.0977  1.0977  0.8072  0.8072  0.7048  0.7048
  0.6361  0.6361

 Free energy of the ion-electron system (eV)
  ---------------------------------------------------
  alpha Z        PSCENC =         0.05874137
  Ewald energy   TEWEN  =       311.48458658
  -Hartree energ DENC   =     -1040.00604364
  -exchange      EXHF   =         0.00000000
  -V(xc)+E(xc)   XCENC  =        55.73321038
  PAW double counting   =       945.19870061     -948.86268255
  entropy T*S    EENTRO =        -0.00000000
  eigenvalues    EBANDS =      -197.51965424
  atomic energy  EATOM  =       864.71597305
  Solvation  Ediel_sol  =         0.00000000
  ---------------------------------------------------
  free energy    TOTEN  =        -9.19716844 eV

  energy without entropy =       -9.19716844  energy(sigma->0) =       -9.19716844


--------------------------------------------------------------------------------------------------------




--------------------------------------- Iteration      1(  18)  ---------------------------------------


    POTLOK:  cpu time      1.5555: real time      1.5568
    SETDIJ:  cpu time      0.1343: real time      0.1344
    EDDIAG:  cpu time      0.2082: real time      0.2084
  RMM-DIIS:  cpu time      0.7165: real time      0.7171
    ORTHCH:  cpu time      0.0041: real time      0.0041
       DOS:  cpu time      0.0001: real time      0.0001
    CHARGE:  cpu time      0.2099: real time      0.2102
    MIXING:  cpu time      0.0524: real time      0.0525
    --------------------------------------------
      LOOP:  cpu time      2.8811: real time      2.8835

 eigenvalue-minimisations  :    41
 total energy-change (2. order) :-0.4791356E-04  (-0.3378877E-06)
 number of electron      11.9999995 magnetization      -0.0000000
 augmentation part        1.1973608 magnetization      -0.0000004

 Broyden mixing:
  rms(total) = 0.10832E-03    rms(broyden)= 0.10806E-03
  rms(prec ) = 0.17042E-03
  weight for this iteration     100.00

 eigenvalues of (default mixing * dielectric matrix)
  average eigenvalue GAMMA=   1.4082
  4.1548  2.5569  1.9917  1.9917  1.4015  1.1006  0.7949  0.7949  0.7836  0.7836
  0.6859  0.6329  0.6329

 Free energy of the ion-electron system (eV)
  ---------------------------------------------------
  alpha Z        PSCENC =         0.05874137
  Ewald energy   TEWEN  =       311.48458658
  -Hartree energ DENC   =     -1040.01572196
  -exchange      EXHF   =         0.00000000
  -V(xc)+E(xc)   XCENC  =        55.73329594
  PAW double counting   =       945.20091742     -948.86501428
  entropy T*S    EENTRO =        -0.00000000
  eigenvalues    EBANDS =      -197.50999447
  atomic energy  EATOM  =       864.71597305
  Solvation  Ediel_sol  =         0.00000000
  ---------------------------------------------------
  free energy    TOTEN  =        -9.19721635 eV

  energy without entropy =       -9.19721635  energy(sigma->0) =       -9.19721635


--------------------------------------------------------------------------------------------------------




--------------------------------------- Iteration      1(  19)  ---------------------------------------


    POTLOK:  cpu time      1.5572: real time      1.5585
    SETDIJ:  cpu time      0.1335: real time      0.1336
    EDDIAG:  cpu time      0.2110: real time      0.2112
  RMM-DIIS:  cpu time      0.7165: real time      0.7170
    ORTHCH:  cpu time      0.0041: real time      0.0041
       DOS:  cpu time      0.0001: real time      0.0001
    CHARGE:  cpu time      0.2040: real time      0.2042
    MIXING:  cpu time      0.0592: real time      0.0592
    --------------------------------------------
      LOOP:  cpu time      2.8855: real time      2.8879

 eigenvalue-minimisations  :    41
 total energy-change (2. order) :-0.6771795E-04  (-0.3407606E-06)
 number of electron      11.9999995 magnetization      -0.0000000
 augmentation part        1.1973542 magnetization       0.0000002

 Broyden mixing:
  rms(total) = 0.62686E-04    rms(broyden)= 0.61624E-04
  rms(prec ) = 0.92072E-04
  weight for this iteration     100.00

 eigenvalues of (default mixing * dielectric matrix)
  average eigenvalue GAMMA=   1.5647
  5.9154  2.7510  2.3431  2.3431  1.5127  1.0652  0.8874  0.8874  0.7885  0.7885
  0.6720  0.6720  0.6525  0.6268

 Free energy of the ion-electron system (eV)
  ---------------------------------------------------
  alpha Z        PSCENC =         0.05874137
  Ewald energy   TEWEN  =       311.48458658
  -Hartree energ DENC   =     -1040.02694037
  -exchange      EXHF   =         0.00000000
  -V(xc)+E(xc)   XCENC  =        55.73328691
  PAW double counting   =       945.20931281     -948.87364908
  entropy T*S    EENTRO =        -0.00000000
  eigenvalues    EBANDS =      -197.49859533
  atomic energy  EATOM  =       864.71597305
  Solvation  Ediel_sol  =         0.00000000
  ---------------------------------------------------
  free energy    TOTEN  =        -9.19728407 eV

  energy without entropy =       -9.19728407  energy(sigma->0) =       -9.19728407


--------------------------------------------------------------------------------------------------------




--------------------------------------- Iteration      1(  20)  ---------------------------------------


    POTLOK:  cpu time      1.5547: real time      1.5561
    SETDIJ:  cpu time      0.1342: real time      0.1343
    EDDIAG:  cpu time      0.2080: real time      0.2081
  RMM-DIIS:  cpu time      0.6675: real time      0.6681
    ORTHCH:  cpu time      0.0042: real time      0.0042
       DOS:  cpu time      0.0001: real time      0.0001
    CHARGE:  cpu time      0.2060: real time      0.2062
    MIXING:  cpu time      0.0623: real time      0.0624
    --------------------------------------------
      LOOP:  cpu time      2.8370: real time      2.8394

 eigenvalue-minimisations  :    38
 total energy-change (2. order) :-0.2395227E-04  (-0.1227516E-06)
 number of electron      11.9999995 magnetization       0.0000000
 augmentation part        1.1973507 magnetization      -0.0000004

 Broyden mixing:
  rms(total) = 0.44880E-04    rms(broyden)= 0.44110E-04
  rms(prec ) = 0.64698E-04
  weight for this iteration     100.00

 eigenvalues of (default mixing * dielectric matrix)
  average eigenvalue GAMMA=   1.5720
  6.5220  2.8667  2.3451  2.3451  1.5231  1.0575  1.0010  1.0010  0.7997  0.7997
  0.6801  0.6801  0.7076  0.6259  0.6259

 Free energy of the ion-electron system (eV)
  ---------------------------------------------------
  alpha Z        PSCENC =         0.05874137
  Ewald energy   TEWEN  =       311.48458658
  -Hartree energ DENC   =     -1040.02939496
  -exchange      EXHF   =         0.00000000
  -V(xc)+E(xc)   XCENC  =        55.73325123
  PAW double counting   =       945.21202327     -948.87645667
  entropy T*S    EENTRO =        -0.00000000
  eigenvalues    EBANDS =      -197.49603189
  atomic energy  EATOM  =       864.71597305
  Solvation  Ediel_sol  =         0.00000000
  ---------------------------------------------------
  free energy    TOTEN  =        -9.19730802 eV

  energy without entropy =       -9.19730802  energy(sigma->0) =       -9.19730802


--------------------------------------------------------------------------------------------------------




--------------------------------------- Iteration      1(  21)  ---------------------------------------


    POTLOK:  cpu time      1.5556: real time      1.5570
    SETDIJ:  cpu time      0.1337: real time      0.1338
    EDDIAG:  cpu time      0.2118: real time      0.2120
  RMM-DIIS:  cpu time      0.6366: real time      0.6371
    ORTHCH:  cpu time      0.0041: real time      0.0041
       DOS:  cpu time      0.0001: real time      0.0001
    CHARGE:  cpu time      0.2086: real time      0.2088
    MIXING:  cpu time      0.0625: real time      0.0626
    --------------------------------------------
      LOOP:  cpu time      2.8130: real time      2.8154

 eigenvalue-minimisations  :    36
 total energy-change (2. order) :-0.1604723E-04  (-0.5190842E-07)
 number of electron      11.9999995 magnetization       0.0000000
 augmentation part        1.1973506 magnetization      -0.0000005

 Broyden mixing:
  rms(total) = 0.37333E-04    rms(broyden)= 0.36331E-04
  rms(prec ) = 0.48089E-04
  weight for this iteration     100.00

 eigenvalues of (default mixing * dielectric matrix)
  average eigenvalue GAMMA=   1.7137
  7.3012  3.3647  2.6632  2.6632  1.8060  1.3950  1.3950  1.0421  0.7822  0.7822
  0.7933  0.7933  0.7122  0.6515  0.6515  0.6222

 Free energy of the ion-electron system (eV)
  ---------------------------------------------------
  alpha Z        PSCENC =         0.05874137
  Ewald energy   TEWEN  =       311.48458658
  -Hartree energ DENC   =     -1040.02861618
  -exchange      EXHF   =         0.00000000
  -V(xc)+E(xc)   XCENC  =        55.73316139
  PAW double counting   =       945.20579955     -948.87018364
  entropy T*S    EENTRO =        -0.00000000
  eigenvalues    EBANDS =      -197.49678618
  atomic energy  EATOM  =       864.71597305
  Solvation  Ediel_sol  =         0.00000000
  ---------------------------------------------------
  free energy    TOTEN  =        -9.19732407 eV

  energy without entropy =       -9.19732407  energy(sigma->0) =       -9.19732407


--------------------------------------------------------------------------------------------------------




--------------------------------------- Iteration      1(  22)  ---------------------------------------


    POTLOK:  cpu time      1.5570: real time      1.5584
    SETDIJ:  cpu time      0.1329: real time      0.1330
    EDDIAG:  cpu time      0.2085: real time      0.2087
  RMM-DIIS:  cpu time      0.6679: real time      0.6685
    ORTHCH:  cpu time      0.0041: real time      0.0041
       DOS:  cpu time      0.0001: real time      0.0001
    CHARGE:  cpu time      0.2063: real time      0.2065
    MIXING:  cpu time      0.0697: real time      0.0697
    --------------------------------------------
      LOOP:  cpu time      2.8466: real time      2.8491

 eigenvalue-minimisations  :    38
 total energy-change (2. order) :-0.1630216E-04  (-0.1134486E-06)
 number of electron      11.9999995 magnetization       0.0000000
 augmentation part        1.1973504 magnetization      -0.0000001

 Broyden mixing:
  rms(total) = 0.37869E-04    rms(broyden)= 0.35465E-04
  rms(prec ) = 0.37905E-04
  weight for this iteration     100.00

 eigenvalues of (default mixing * dielectric matrix)
  average eigenvalue GAMMA=   1.8779
  8.9416  5.2681  2.7970  2.5426  1.9323  1.4549  1.4549  1.0397  0.7846  0.7846
  0.8430  0.8430  0.7139  0.6546  0.6546  0.6079  0.6079

 Free energy of the ion-electron system (eV)
  ---------------------------------------------------
  alpha Z        PSCENC =         0.05874137
  Ewald energy   TEWEN  =       311.48458658
  -Hartree energ DENC   =     -1040.02785135
  -exchange      EXHF   =         0.00000000
  -V(xc)+E(xc)   XCENC  =        55.73306973
  PAW double counting   =       945.20427671     -948.86859700
  entropy T*S    EENTRO =        -0.00000000
  eigenvalues    EBANDS =      -197.49753946
  atomic energy  EATOM  =       864.71597305
  Solvation  Ediel_sol  =         0.00000000
  ---------------------------------------------------
  free energy    TOTEN  =        -9.19734037 eV

  energy without entropy =       -9.19734037  energy(sigma->0) =       -9.19734037


--------------------------------------------------------------------------------------------------------




--------------------------------------- Iteration      1(  23)  ---------------------------------------


    POTLOK:  cpu time      1.5562: real time      1.5633
    SETDIJ:  cpu time      0.1340: real time      0.1341
    EDDIAG:  cpu time      0.2130: real time      0.2132
  RMM-DIIS:  cpu time      0.6364: real time      0.6375
    ORTHCH:  cpu time      0.0043: real time      0.0043
       DOS:  cpu time      0.0001: real time      0.0001
    CHARGE:  cpu time      0.2049: real time      0.2051
    MIXING:  cpu time      0.0740: real time      0.0741
    --------------------------------------------
      LOOP:  cpu time      2.8230: real time      2.8315

 eigenvalue-minimisations  :    36
 total energy-change (2. order) :-0.3623702E-05  (-0.2478087E-07)
 number of electron      11.9999995 magnetization       0.0000000
 augmentation part        1.1973495 magnetization      -0.0000001

 Broyden mixing:
  rms(total) = 0.33854E-04    rms(broyden)= 0.33054E-04
  rms(prec ) = 0.34604E-04
  weight for this iteration     100.00

 eigenvalues of (default mixing * dielectric matrix)
  average eigenvalue GAMMA=   1.8298
  8.0203  4.5757  2.6928  2.7950  2.5460  1.9696  1.3751  1.3751  1.0321  0.7851
  0.7851  0.8421  0.8421  0.7196  0.6693  0.6693  0.6210  0.6210

 Free energy of the ion-electron system (eV)
  ---------------------------------------------------
  alpha Z        PSCENC =         0.05874137
  Ewald energy   TEWEN  =       311.48458658
  -Hartree energ DENC   =     -1040.02781523
  -exchange      EXHF   =         0.00000000
  -V(xc)+E(xc)   XCENC  =        55.73306230
  PAW double counting   =       945.20635348     -948.87068274
  entropy T*S    EENTRO =        -0.00000000
  eigenvalues    EBANDS =      -197.49756280
  atomic energy  EATOM  =       864.71597305
  Solvation  Ediel_sol  =         0.00000000
  ---------------------------------------------------
  free energy    TOTEN  =        -9.19734400 eV

  energy without entropy =       -9.19734400  energy(sigma->0) =       -9.19734400


--------------------------------------------------------------------------------------------------------




--------------------------------------- Iteration      1(  24)  ---------------------------------------


    POTLOK:  cpu time      1.5579: real time      1.5635
    SETDIJ:  cpu time      0.1330: real time      0.1330
    EDDIAG:  cpu time      0.2077: real time      0.2079
  RMM-DIIS:  cpu time      0.5586: real time      0.5591
    ORTHCH:  cpu time      0.0041: real time      0.0041
       DOS:  cpu time      0.0001: real time      0.0001
    CHARGE:  cpu time      0.2074: real time      0.2076
    MIXING:  cpu time      0.0737: real time      0.0738
    --------------------------------------------
      LOOP:  cpu time      2.7424: real time      2.7491

 eigenvalue-minimisations  :    28
 total energy-change (2. order) :-0.1312246E-05  (-0.1050337E-07)
 number of electron      11.9999995 magnetization       0.0000000
 augmentation part        1.1973490 magnetization      -0.0000001

 Broyden mixing:
  rms(total) = 0.28933E-04    rms(broyden)= 0.28652E-04
  rms(prec ) = 0.30009E-04
  weight for this iteration     100.00

 eigenvalues of (default mixing * dielectric matrix)
  average eigenvalue GAMMA=   2.2292
 14.2513  6.4082  3.2128  2.7267  2.2306  2.2306  1.3266  1.3266  1.0706  1.0706
  0.7855  0.7855  0.8084  0.8084  0.7019  0.7019  0.6424  0.6424  0.6241

 Free energy of the ion-electron system (eV)
  ---------------------------------------------------
  alpha Z        PSCENC =         0.05874137
  Ewald energy   TEWEN  =       311.48458658
  -Hartree energ DENC   =     -1040.02778606
  -exchange      EXHF   =         0.00000000
  -V(xc)+E(xc)   XCENC  =        55.73305972
  PAW double counting   =       945.20634053     -948.87067329
  entropy T*S    EENTRO =        -0.00000000
  eigenvalues    EBANDS =      -197.49758720
  atomic energy  EATOM  =       864.71597305
  Solvation  Ediel_sol  =         0.00000000
  ---------------------------------------------------
  free energy    TOTEN  =        -9.19734531 eV

  energy without entropy =       -9.19734531  energy(sigma->0) =       -9.19734531


--------------------------------------------------------------------------------------------------------




--------------------------------------- Iteration      1(  25)  ---------------------------------------


    POTLOK:  cpu time      1.5550: real time      1.5563
    SETDIJ:  cpu time      0.1324: real time      0.1324
    EDDIAG:  cpu time      0.2113: real time      0.2115
  RMM-DIIS:  cpu time      0.6373: real time      0.6378
    ORTHCH:  cpu time      0.0041: real time      0.0041
       DOS:  cpu time      0.0001: real time      0.0001
    CHARGE:  cpu time      0.2037: real time      0.2039
    MIXING:  cpu time      0.0842: real time      0.0843
    --------------------------------------------
      LOOP:  cpu time      2.8280: real time      2.8303

 eigenvalue-minimisations  :    36
 total energy-change (2. order) :-0.1479369E-05  (-0.1967565E-07)
 number of electron      11.9999995 magnetization       0.0000000
 augmentation part        1.1973490 magnetization      -0.0000001

 Broyden mixing:
  rms(total) = 0.34722E-04    rms(broyden)= 0.31986E-04
  rms(prec ) = 0.32278E-04
  weight for this iteration     100.00

 eigenvalues of (default mixing * dielectric matrix)
  average eigenvalue GAMMA=   2.1343
 14.4769  6.4346  3.2385  2.7236  2.2326  2.2326  1.3304  1.3304  1.0716  1.0716
  0.7855  0.7855  0.8087  0.8087  0.7020  0.7020  0.6425  0.6425  0.6240  0.0426

 Free energy of the ion-electron system (eV)
  ---------------------------------------------------
  alpha Z        PSCENC =         0.05874137
  Ewald energy   TEWEN  =       311.48458658
  -Hartree energ DENC   =     -1040.02702356
  -exchange      EXHF   =         0.00000000
  -V(xc)+E(xc)   XCENC  =        55.73301867
  PAW double counting   =       945.20322221     -948.86754397
  entropy T*S    EENTRO =        -0.00000000
  eigenvalues    EBANDS =      -197.49832113
  atomic energy  EATOM  =       864.71597305
  Solvation  Ediel_sol  =         0.00000000
  ---------------------------------------------------
  free energy    TOTEN  =        -9.19734679 eV

  energy without entropy =       -9.19734679  energy(sigma->0) =       -9.19734679


--------------------------------------------------------------------------------------------------------




--------------------------------------- Iteration      1(  26)  ---------------------------------------


    POTLOK:  cpu time      1.5574: real time      1.5588
    SETDIJ:  cpu time      0.1338: real time      0.1339
    EDDIAG:  cpu time      0.2078: real time      0.2080
  RMM-DIIS:  cpu time      0.5529: real time      0.5534
    ORTHCH:  cpu time      0.0041: real time      0.0041
       DOS:  cpu time      0.0001: real time      0.0001
    CHARGE:  cpu time      0.2111: real time      0.2113
    MIXING:  cpu time      0.0817: real time      0.0818
    --------------------------------------------
      LOOP:  cpu time      2.7489: real time      2.7513

 eigenvalue-minimisations  :    27
 total energy-change (2. order) :-0.1714713E-05  (-0.4918405E-08)
 number of electron      11.9999995 magnetization       0.0000000
 augmentation part        1.1973488 magnetization      -0.0000001

 Broyden mixing:
  rms(total) = 0.31985E-04    rms(broyden)= 0.31769E-04
  rms(prec ) = 0.32024E-04
  weight for this iteration     100.00

 eigenvalues of (default mixing * dielectric matrix)
  average eigenvalue GAMMA=   2.2507
 17.3443  6.7461  3.5401  2.7077  2.2490  2.2490  1.4236  1.4236  1.0758  1.0758
  0.7856  0.7856  0.8245  0.8245  0.7081  0.7081  0.6423  0.6423  0.6243  0.4421
  0.4421

 Free energy of the ion-electron system (eV)
  ---------------------------------------------------
  alpha Z        PSCENC =         0.05874137
  Ewald energy   TEWEN  =       311.48458658
  -Hartree energ DENC   =     -1040.02700918
  -exchange      EXHF   =         0.00000000
  -V(xc)+E(xc)   XCENC  =        55.73301574
  PAW double counting   =       945.20313234     -948.86745280
  entropy T*S    EENTRO =        -0.00000000
  eigenvalues    EBANDS =      -197.49833560
  atomic energy  EATOM  =       864.71597305
  Solvation  Ediel_sol  =         0.00000000
  ---------------------------------------------------
  free energy    TOTEN  =        -9.19734850 eV

  energy without entropy =       -9.19734850  energy(sigma->0) =       -9.19734850


--------------------------------------------------------------------------------------------------------




--------------------------------------- Iteration      1(  27)  ---------------------------------------


    POTLOK:  cpu time      1.5552: real time      1.5566
    SETDIJ:  cpu time      0.1327: real time      0.1328
    EDDIAG:  cpu time      0.2114: real time      0.2117
  RMM-DIIS:  cpu time      0.6091: real time      0.6096
    ORTHCH:  cpu time      0.0040: real time      0.0041
       DOS:  cpu time      0.0001: real time      0.0001
    --------------------------------------------
      LOOP:  cpu time      2.5126: real time      2.5148

 eigenvalue-minimisations  :    33
 total energy-change (2. order) :-0.1389697E-06  (-0.4674801E-08)
 number of electron      11.9999995 magnetization       0.0000000
 augmentation part        1.1973488 magnetization      -0.0000001

 Free energy of the ion-electron system (eV)
  ---------------------------------------------------
  alpha Z        PSCENC =         0.05874137
  Ewald energy   TEWEN  =       311.48458658
  -Hartree energ DENC   =     -1040.02676211
  -exchange      EXHF   =         0.00000000
  -V(xc)+E(xc)   XCENC  =        55.73300136
  PAW double counting   =       945.20265086     -948.86696649
  entropy T*S    EENTRO =        -0.00000000
  eigenvalues    EBANDS =      -197.49857325
  atomic energy  EATOM  =       864.71597305
  Solvation  Ediel_sol  =         0.00000000
  ---------------------------------------------------
  free energy    TOTEN  =        -9.19734864 eV

  energy without entropy =       -9.19734864  energy(sigma->0) =       -9.19734864


--------------------------------------------------------------------------------------------------------




 average (electrostatic) potential at core
  the test charge radii are     0.7215
  (the norm of the test charge is              1.0000)
       1 -84.0577       2 -84.0577
 
 
 
 E-fermi :  -5.9440     XC(G=0):  -0.0762     alpha+bet : -0.0158

 Fermi energy:        -5.9440084632

 spin component 1

 k-point     1 :       0.0000    0.0000    0.0000
  band No.  band energies     occupation 
      1     -33.8855      1.00000
      2     -19.1673      1.00000
      3     -13.8767      1.00000
      4     -13.2019      1.00000
      5     -12.6168      1.00000
      6      -6.0010      1.00000
      7      -4.4575      0.00000
      8      -0.1467      0.00000
      9       0.1055      0.00000
     10       0.2867      0.00000
     11       0.2932      0.00000
     12       0.3055      0.00000
 Fermi energy:        -5.9440084632

 spin component 2

 k-point     1 :       0.0000    0.0000    0.0000
  band No.  band energies     occupation 
      1     -33.8855      1.00000
      2     -19.1673      1.00000
      3     -13.8767      1.00000
      4     -13.2019      1.00000
      5     -12.6168      1.00000
      6      -6.0010      1.00000
      7      -4.4575      0.00000
      8      -0.1458      0.00000
      9       0.1062      0.00000
     10       0.2865      0.00000
     11       0.2938      0.00000
     12       0.3076      0.00000


--------------------------------------------------------------------------------------------------------


 soft charge-density along one line, spin component           1
         0         1         2         3         4         5         6         7         8         9
 total charge-density along one line
 
 soft charge-density along one line, spin component           2
         0         1         2         3         4         5         6         7         8         9
 total charge-density along one line
 
 pseudopotential strength for first ion, spin component:           1
 14.344 -17.625   0.000  -0.000   0.147  -0.000   0.000  -0.182
-17.625  21.690  -0.000   0.000  -0.187   0.000  -0.000   0.231
  0.000  -0.000 -11.349   0.075  -0.000  14.213  -0.108   0.000
 -0.000   0.000   0.075 -10.926   0.000  -0.108  13.609  -0.000
  0.147  -0.187  -0.000   0.000 -11.364   0.000  -0.000  14.211
 -0.000   0.000  14.213  -0.108   0.000 -17.759   0.155  -0.000
  0.000  -0.000  -0.108  13.609  -0.000   0.155 -16.892   0.000
 -0.182   0.231   0.000  -0.000  14.211  -0.000   0.000 -17.725
 pseudopotential strength for first ion, spin component:           2
 14.344 -17.625  -0.000   0.000   0.147   0.000  -0.000  -0.182
-17.625  21.690   0.000  -0.000  -0.187  -0.000   0.000   0.231
 -0.000   0.000 -10.926  -0.075   0.000  13.609   0.108  -0.000
  0.000  -0.000  -0.075 -11.349  -0.000   0.108  14.213   0.000
  0.147  -0.187   0.000  -0.000 -11.364  -0.000   0.000  14.211
  0.000  -0.000  13.609   0.108  -0.000 -16.892  -0.155   0.000
 -0.000   0.000   0.108  14.213   0.000  -0.155 -17.759  -0.000
 -0.182   0.231  -0.000   0.000  14.211   0.000  -0.000 -17.725
 total augmentation occupancy for first ion, spin component:           1
  2.686   0.458  -0.000  -0.000  -0.767   0.000   0.000  -0.358
  0.458   0.241  -0.000  -0.000  -0.693   0.000   0.000  -0.220
 -0.000  -0.000   1.763  -0.000  -0.000   0.116   0.000   0.000
 -0.000  -0.000  -0.000   1.763  -0.000   0.000   0.116   0.000
 -0.767  -0.693  -0.000  -0.000   2.773   0.000  -0.000   0.667
  0.000   0.000   0.116   0.000   0.000   0.043  -0.000  -0.000
  0.000   0.000   0.000   0.116  -0.000  -0.000   0.043  -0.000
 -0.358  -0.220   0.000   0.000   0.667  -0.000  -0.000   0.204
 total augmentation occupancy for first ion, spin component:           2
  0.000  -0.000  -0.000   0.000   0.000   0.000  -0.000   0.000
 -0.000  -0.000  -0.000   0.000   0.000   0.000  -0.000   0.000
 -0.000  -0.000   0.287  -0.102   0.000  -0.089   0.032  -0.000
  0.000   0.000  -0.102  -0.287   0.000   0.032   0.089  -0.000
  0.000   0.000   0.000   0.000  -0.000  -0.000   0.000  -0.000
  0.000   0.000  -0.089   0.032  -0.000   0.012  -0.004  -0.000
 -0.000  -0.000   0.032   0.089   0.000  -0.004  -0.012   0.000
  0.000   0.000  -0.000  -0.000  -0.000  -0.000   0.000  -0.000


------------------------ aborting loop because EDIFF is reached ----------------------------------------





 total charge

# of ion       s       p       d       tot
------------------------------------------
    1        1.617   3.406   0.000   5.023
    2        1.617   3.406   0.000   5.023
--------------------------------------------------
tot          3.234   6.813   0.000  10.046



 magnetization (x)

# of ion       s       p       d       tot
------------------------------------------
    1        0.000  -0.000   0.000  -0.000
    2        0.000  -0.000   0.000  -0.000
--------------------------------------------------
tot          0.000  -0.000   0.000  -0.000
 
    CHARGE:  cpu time      0.2059: real time      0.2061
    FORLOC:  cpu time      0.0237: real time      0.0237
    FORNL :  cpu time      0.1070: real time      0.1072
    STRESS:  cpu time      0.4222: real time      0.4226
    FORCOR:  cpu time      1.4801: real time      1.4815
    FORHAR:  cpu time      0.1801: real time      0.1803
    MIXING:  cpu time      0.0812: real time      0.0813
    OFIELD:  cpu time      0.0000: real time      0.0000

  FORCE on cell =-STRESS in cart. coord.  units (eV):
  Direction    XX          YY          ZZ          XY          YZ          ZX
  --------------------------------------------------------------------------------------
  Alpha Z     0.05874     0.05874     0.05874
  Ewald     404.35938   -46.43740   -46.43740    -0.00000     0.00000    -0.00000
  Hartree   476.18229   281.92276   281.92286    -0.00000    -0.00013     0.00000
  E(xc)     -58.18018   -59.65200   -59.65200    -0.00000    -0.00000    -0.00000
  Local   -1010.51705  -419.18708  -419.18736     0.00000     0.00041    -0.00000
  n-local   -49.99965   -44.04943   -44.04953     0.00000     0.00007     0.00000
  augment    10.36512    13.45370    13.45374    -0.00000    -0.00006    -0.00000
  Kinetic   237.04205   273.80915   273.80940    -0.00000    -0.00034    -0.00000
  Fock        0.00000     0.00000     0.00000     0.00000     0.00000     0.00000
  -------------------------------------------------------------------------------------
  Total       9.31070    -0.08155    -0.08155    -0.00000    -0.00006     0.00000
  in kB       1.57654    -0.01381    -0.01381    -0.00000    -0.00001     0.00000
  external pressure =        0.52 kB  Pullay stress =        0.00 kB


 VOLUME and BASIS-vectors are now :
 -----------------------------------------------------------------------------
  energy-cutoff  :      520.00
  volume of cell :     9462.12
      direct lattice vectors                 reciprocal lattice vectors
    21.150930000  0.000000000  0.000000000     0.047279245  0.000000000  0.000000000
     0.000000000 21.150930000  0.000000000     0.000000000  0.047279245  0.000000000
     0.000000000  0.000000000 21.150930000     0.000000000  0.000000000  0.047279245

  length of vectors
    21.150930000 21.150930000 21.150930000     0.047279245  0.047279245  0.047279245


 FORCES acting on ions
    electron-ion (+dipol)            ewald-force                    non-local-force                 convergence-correction
 -----------------------------------------------------------------------------------------------
   -.323E+03 0.376E-05 0.246E-05   0.391E+03 -.771E-17 0.949E-18   -.594E+02 -.387E-05 -.254E-05   0.239E-03 -.103E-05 -.127E-05
[...]

 Free energy of the ion-electron system (eV)
  ---------------------------------------------------
  alpha Z        PSCENC =         0.05874137
  Ewald energy   TEWEN  =       281.17180371
  -Hartree energ DENC   =     -1014.10815805
  -exchange      EXHF   =         0.00000000
  -V(xc)+E(xc)   XCENC  =        55.06267459
  PAW double counting   =       873.93897389     -877.45077321
  entropy T*S    EENTRO =        -0.00000000
  eigenvalues    EBANDS =      -192.89252814
  atomic energy  EATOM  =       864.71597305
  Solvation  Ediel_sol  =         0.00000000
  ---------------------------------------------------
  free energy    TOTEN  =        -9.50329278 eV

  energy without entropy =       -9.50329278  energy(sigma->0) =       -9.50329278


--------------------------------------------------------------------------------------------------------




--------------------------------------- Iteration      8(   2)  ---------------------------------------


    POTLOK:  cpu time      1.5558: real time      1.5573
    SETDIJ:  cpu time      0.1332: real time      0.1333
    EDDIAG:  cpu time      0.2095: real time      0.2097
  RMM-DIIS:  cpu time      0.7924: real time      0.7932
    ORTHCH:  cpu time      0.0041: real time      0.0041
       DOS:  cpu time      0.0001: real time      0.0001
    CHARGE:  cpu time      0.2171: real time      0.2172
    MIXING:  cpu time      0.0311: real time      0.0311
    --------------------------------------------
      LOOP:  cpu time      2.9433: real time      2.9460

 eigenvalue-minimisations  :    48
 total energy-change (2. order) : 0.2178087E-04  (-0.2275296E-05)
 number of electron      11.9999996 magnetization       0.0000000
 augmentation part        1.1384448 magnetization      -0.0000002

 Broyden mixing:
  rms(total) = 0.70450E-03    rms(broyden)= 0.70344E-03
  rms(prec ) = 0.72354E-03
  weight for this iteration     100.00

 eigenvalues of (default mixing * dielectric matrix)
  average eigenvalue GAMMA=   0.7722
  0.7722

 Free energy of the ion-electron system (eV)
  ---------------------------------------------------
  alpha Z        PSCENC =         0.05874137
  Ewald energy   TEWEN  =       281.17180371
  -Hartree energ DENC   =     -1014.13285184
  -exchange      EXHF   =         0.00000000
  -V(xc)+E(xc)   XCENC  =        55.06424225
  PAW double counting   =       874.18576066     -877.69809808
  entropy T*S    EENTRO =        -0.00000000
  eigenvalues    EBANDS =      -192.86884212
  atomic energy  EATOM  =       864.71597305
  Solvation  Ediel_sol  =         0.00000000
  ---------------------------------------------------
  free energy    TOTEN  =        -9.50327100 eV

  energy without entropy =       -9.50327100  energy(sigma->0) =       -9.50327100


--------------------------------------------------------------------------------------------------------




--------------------------------------- Iteration      8(   3)  ---------------------------------------


    POTLOK:  cpu time      1.5553: real time      1.5618
    SETDIJ:  cpu time      0.1338: real time      0.1338
    EDDIAG:  cpu time      0.2121: real time      0.2123
  RMM-DIIS:  cpu time      0.7901: real time      0.7908
    ORTHCH:  cpu time      0.0041: real time      0.0041
       DOS:  cpu time      0.0001: real time      0.0001
    CHARGE:  cpu time      0.2069: real time      0.2071
    MIXING:  cpu time      0.0406: real time      0.0406
    --------------------------------------------
      LOOP:  cpu time      2.9430: real time      2.9506

 eigenvalue-minimisations  :    48
 total energy-change (2. order) :-0.1745050E-04  (-0.4028635E-06)
 number of electron      11.9999996 magnetization       0.0000000
 augmentation part        1.1383975 magnetization      -0.0000002

 Broyden mixing:
  rms(total) = 0.33018E-03    rms(broyden)= 0.32988E-03
  rms(prec ) = 0.33585E-03
  weight for this iteration     100.00

 eigenvalues of (default mixing * dielectric matrix)
  average eigenvalue GAMMA=   1.1770
  1.6865  0.6674

 Free energy of the ion-electron system (eV)
  ---------------------------------------------------
  alpha Z        PSCENC =         0.05874137
  Ewald energy   TEWEN  =       281.17180371
  -Hartree energ DENC   =     -1014.14678549
  -exchange      EXHF   =         0.00000000
  -V(xc)+E(xc)   XCENC  =        55.06507965
  PAW double counting   =       874.32543080     -877.83820971
  entropy T*S    EENTRO =        -0.00000000
  eigenvalues    EBANDS =      -192.85532183
  atomic energy  EATOM  =       864.71597305
  Solvation  Ediel_sol  =         0.00000000
  ---------------------------------------------------
  free energy    TOTEN  =        -9.50328845 eV

  energy without entropy =       -9.50328845  energy(sigma->0) =       -9.50328845


--------------------------------------------------------------------------------------------------------




--------------------------------------- Iteration      8(   4)  ---------------------------------------


    POTLOK:  cpu time      1.5561: real time      1.5616
    SETDIJ:  cpu time      0.1318: real time      0.1318
    EDDIAG:  cpu time      0.2100: real time      0.2101
  RMM-DIIS:  cpu time      0.6166: real time      0.6172
    ORTHCH:  cpu time      0.0042: real time      0.0042
       DOS:  cpu time      0.0001: real time      0.0001
    CHARGE:  cpu time      0.2166: real time      0.2167
    MIXING:  cpu time      0.0326: real time      0.0326
    --------------------------------------------
      LOOP:  cpu time      2.7678: real time      2.7743

 eigenvalue-minimisations  :    34
 total energy-change (2. order) :-0.6035166E-05  (-0.1547840E-06)
 number of electron      11.9999996 magnetization       0.0000000
 augmentation part        1.1383639 magnetization      -0.0000003

 Broyden mixing:
  rms(total) = 0.14859E-03    rms(broyden)= 0.14831E-03
  rms(prec ) = 0.15236E-03
  weight for this iteration     100.00

 eigenvalues of (default mixing * dielectric matrix)
  average eigenvalue GAMMA=   1.1643
  1.4160  1.4160  0.6609

 Free energy of the ion-electron system (eV)
  ---------------------------------------------------
  alpha Z        PSCENC =         0.05874137
  Ewald energy   TEWEN  =       281.17180371
  -Hartree energ DENC   =     -1014.15456671
  -exchange      EXHF   =         0.00000000
  -V(xc)+E(xc)   XCENC  =        55.06555732
  PAW double counting   =       874.44571894     -877.95875618
  entropy T*S    EENTRO =        -0.00000000
  eigenvalues    EBANDS =      -192.84776599
  atomic energy  EATOM  =       864.71597305
  Solvation  Ediel_sol  =         0.00000000
  ---------------------------------------------------
  free energy    TOTEN  =        -9.50329449 eV

  energy without entropy =       -9.50329449  energy(sigma->0) =       -9.50329449


--------------------------------------------------------------------------------------------------------




--------------------------------------- Iteration      8(   5)  ---------------------------------------


    POTLOK:  cpu time      1.5550: real time      1.5563
    SETDIJ:  cpu time      0.1338: real time      0.1338
    EDDIAG:  cpu time      0.2127: real time      0.2129
  RMM-DIIS:  cpu time      0.6182: real time      0.6188
    ORTHCH:  cpu time      0.0041: real time      0.0041
       DOS:  cpu time      0.0001: real time      0.0001
    --------------------------------------------
      LOOP:  cpu time      2.5238: real time      2.5260

 eigenvalue-minimisations  :    34
 total energy-change (2. order) :-0.9947963E-06  (-0.1822267E-07)
 number of electron      11.9999996 magnetization       0.0000000
 augmentation part        1.1383639 magnetization      -0.0000003

 Free energy of the ion-electron system (eV)
  ---------------------------------------------------
  alpha Z        PSCENC =         0.05874137
  Ewald energy   TEWEN  =       281.17180371
  -Hartree energ DENC   =     -1014.14978701
  -exchange      EXHF   =         0.00000000
  -V(xc)+E(xc)   XCENC  =        55.06525626
  PAW double counting   =       874.46703788     -877.97999184
  entropy T*S    EENTRO =        -0.00000000
  eigenvalues    EBANDS =      -192.85232891
  atomic energy  EATOM  =       864.71597305
  Solvation  Ediel_sol  =         0.00000000
  ---------------------------------------------------
  free energy    TOTEN  =        -9.50329548 eV

  energy without entropy =       -9.50329548  energy(sigma->0) =       -9.50329548


--------------------------------------------------------------------------------------------------------




 average (electrostatic) potential at core
  the test charge radii are     0.7215
  (the norm of the test charge is              1.0000)
       1 -83.9068       2 -83.9068
 
 
 
 E-fermi :  -6.6434     XC(G=0):  -0.0762     alpha+bet : -0.0158

 Fermi energy:        -6.6434414912

 spin component 1

 k-point     1 :       0.0000    0.0000    0.0000
  band No.  band energies     occupation 
      1     -31.9729      1.00000
      2     -19.8532      1.00000
      3     -13.0739      1.00000
      4     -13.0201      1.00000
      5     -11.8073      1.00000
      6      -6.6987      1.00000
      7      -5.1592      0.00000
      8      -0.1508      0.00000
      9       0.1067      0.00000
     10       0.2548      0.00000
     11       0.3036      0.00000
     12       0.3273      0.00000
 Fermi energy:        -6.6434414912

 spin component 2

 k-point     1 :       0.0000    0.0000    0.0000
  band No.  band energies     occupation 
      1     -31.9729      1.00000
      2     -19.8532      1.00000
      3     -13.0739      1.00000
      4     -13.0201      1.00000
      5     -11.8073      1.00000
      6      -6.6987      1.00000
      7      -5.1592      0.00000
      8      -0.1508      0.00000
      9       0.1067      0.00000
     10       0.2548      0.00000
     11       0.3036      0.00000
     12       0.3282      0.00000


--------------------------------------------------------------------------------------------------------


 soft charge-density along one line, spin component           1
         0         1         2         3         4         5         6         7         8         9
 total charge-density along one line
 
 soft charge-density along one line, spin component           2
         0         1         2         3         4         5         6         7         8         9
 total charge-density along one line
 
 pseudopotential strength for first ion, spin component:           1
 14.322 -17.598   0.000  -0.000   0.109  -0.000   0.000  -0.133
-17.598  21.656  -0.000   0.000  -0.139   0.000  -0.000   0.170
  0.000  -0.000 -11.352   0.073  -0.000  14.221  -0.104   0.000
 -0.000   0.000   0.073 -10.927   0.000  -0.104  13.614  -0.000
  0.109  -0.139  -0.000   0.000 -11.310   0.000  -0.000  14.143
 -0.000   0.000  14.221  -0.104   0.000 -17.774   0.149  -0.000
  0.000  -0.000  -0.104  13.614  -0.000   0.149 -16.903   0.000
 -0.133   0.170   0.000  -0.000  14.143  -0.000   0.000 -17.639
 pseudopotential strength for first ion, spin component:           2
 14.322 -17.598  -0.000  -0.000   0.109   0.000   0.000  -0.133
-17.598  21.656   0.000   0.000  -0.139  -0.000  -0.000   0.170
 -0.000   0.000 -10.927  -0.073   0.000  13.614   0.104  -0.000
 -0.000   0.000  -0.073 -11.352  -0.000   0.104  14.221   0.000
  0.109  -0.139   0.000  -0.000 -11.310  -0.000   0.000  14.143
  0.000  -0.000  13.614   0.104  -0.000 -16.903  -0.149   0.000
  0.000  -0.000   0.104  14.221   0.000  -0.149 -17.774  -0.000
 -0.133   0.170  -0.000   0.000  14.143   0.000  -0.000 -17.639
 total augmentation occupancy for first ion, spin component:           1
  2.451   0.315   0.000   0.000  -0.537   0.000   0.000  -0.254
  0.315   0.176   0.000   0.000  -0.551   0.000   0.000  -0.165
  0.000   0.000   1.688  -0.000  -0.000   0.085   0.000  -0.000
  0.000   0.000  -0.000   1.688   0.000   0.000   0.085  -0.000
 -0.537  -0.551  -0.000   0.000   2.423  -0.000   0.000   0.542
  0.000   0.000   0.085   0.000  -0.000   0.029  -0.000  -0.000
  0.000   0.000   0.000   0.085   0.000  -0.000   0.029   0.000
 -0.254  -0.165  -0.000  -0.000   0.542  -0.000   0.000   0.155
 total augmentation occupancy for first ion, spin component:           2
 -0.000  -0.000   0.000   0.000   0.000   0.000   0.000   0.000
 -0.000  -0.000   0.000   0.000   0.000   0.000   0.000   0.000
  0.000   0.000   0.326  -0.112   0.000  -0.080   0.027  -0.000
  0.000   0.000  -0.112  -0.326  -0.000   0.027   0.080  -0.000
  0.000   0.000   0.000  -0.000  -0.000   0.000   0.000  -0.000
  0.000   0.000  -0.080   0.027   0.000   0.007  -0.003   0.000
  0.000   0.000   0.027   0.080   0.000  -0.003  -0.007   0.000
  0.000   0.000  -0.000  -0.000  -0.000   0.000   0.000  -0.000


------------------------ aborting loop because EDIFF is reached ----------------------------------------





 total charge

# of ion       s       p       d       tot
------------------------------------------
    1        1.612   3.272   0.000   4.884
    2        1.612   3.272   0.000   4.884
--------------------------------------------------
tot          3.224   6.544   0.000   9.768



 magnetization (x)

# of ion       s       p       d       tot
------------------------------------------
    1       -0.000  -0.000   0.000  -0.000
    2       -0.000  -0.000   0.000  -0.000
--------------------------------------------------
tot         -0.000  -0.000   0.000  -0.000
 
    CHARGE:  cpu time      0.2179: real time      0.2181
    FORLOC:  cpu time      0.0121: real time      0.0121
    FORNL :  cpu time      0.1053: real time      0.1054
    STRESS:  cpu time      0.4216: real time      0.4220
    FORCOR:  cpu time      1.4718: real time      1.4731
    FORHAR:  cpu time      0.1782: real time      0.1783
    MIXING:  cpu time      0.0324: real time      0.0324
    OFIELD:  cpu time      0.0000: real time      0.0000

  FORCE on cell =-STRESS in cart. coord.  units (eV):
  Direction    XX          YY          ZZ          XY          YZ          ZX
  --------------------------------------------------------------------------------------
  Alpha Z     0.05874     0.05874     0.05874
  Ewald     374.06952   -46.44886   -46.44886    -0.00000    -0.00000     0.00000
  Hartree   468.39545   272.87678   272.87690    -0.00000    -0.00018     0.00000
  E(xc)     -57.58748   -58.97759   -58.97759    -0.00000    -0.00000     0.00000
  Local    -980.34593  -408.44185  -408.44222     0.00001     0.00055    -0.00000
  n-local   -47.25403   -43.60074   -43.60088     0.00000     0.00010    -0.00000
  augment    10.23294    13.01467    13.01472     0.00000    -0.00008     0.00000
  Kinetic   232.35811   271.44768   271.44803     0.00000    -0.00047     0.00000
  Fock        0.00000     0.00000     0.00000     0.00000     0.00000     0.00000
  -------------------------------------------------------------------------------------
  Total      -0.07269    -0.07117    -0.07117     0.00000    -0.00008    -0.00000
  in kB      -0.01231    -0.01205    -0.01205     0.00000    -0.00001    -0.00000
  external pressure =       -0.01 kB  Pullay stress =        0.00 kB


 VOLUME and BASIS-vectors are now :
 -----------------------------------------------------------------------------
  energy-cutoff  :      520.00
  volume of cell :     9462.12
      direct lattice vectors                 reciprocal lattice vectors
    21.150930000  0.000000000  0.000000000     0.047279245  0.000000000  0.000000000
     0.000000000 21.150930000  0.000000000     0.000000000  0.047279245  0.000000000
     0.000000000  0.000000000 21.150930000     0.000000000  0.000000000  0.047279245

  length of vectors
    21.150930000 21.150930000 21.150930000     0.047279245  0.047279245  0.047279245


 FORCES acting on ions
    electron-ion (+dipol)            ewald-force                    non-local-force                 convergence-correction
 -----------------------------------------------------------------------------------------------
   -.288E+03 0.298E-05 -.224E-06   0.340E+03 -.358E-05 0.362E-06   -.519E+02 0.611E-06 0.777E-06   -.142E-04 0.132E-06 -.171E-06
   0.288E+03 -.321E-05 -.227E-06   -.340E+03 0.358E-05 -.362E-06   0.519E+02 -.301E-06 0.844E-07   0.299E-04 0.297E-07 0.374E-06
 -----------------------------------------------------------------------------------------------
   -.123E-04 -.230E-06 -.451E-06   0.000E+00 -.704E-17 0.118E-16   0.100E-05 0.310E-06 0.861E-06   0.157E-04 0.162E-06 0.203E-06
 
 
 POSITION                                       TOTAL-FORCE (eV/Angst)
 -----------------------------------------------------------------------------------
     11.19249     10.57546     10.57547        -0.001426      0.000000      0.000000
      9.95844     10.57547     10.57546         0.001426     -0.000000     -0.000000
 -----------------------------------------------------------------------------------
    total drift:                                0.000004      0.000000      0.000001


--------------------------------------------------------------------------------------------------------



  FREE ENERGIE OF THE ION-ELECTRON SYSTEM (eV)
  ---------------------------------------------------
  free  energy   TOTEN  =        -9.50329548 eV

  energy  without entropy=       -9.50329548  energy(sigma->0) =       -9.50329548
 
 d Force = 0.2260713E-04[ 0.111E-05, 0.441E-04]  d Energy = 0.2665859E-04-0.405E-05
 d Force =-0.2635908E+00[-0.264E+00,-0.263E+00]  d Ewald  =-0.2635908E+00-0.519E-07


--------------------------------------------------------------------------------------------------------


    POTLOK:  cpu time      1.6849: real time      1.6862


--------------------------------------------------------------------------------------------------------


 stress matrix after NEB project (eV)
     -0.07269      0.00000     -0.00000
      0.00000     -0.07117      0.00008
     -0.00000     -0.00008     -0.07117
  FORCES: max atom, RMS     0.001426    0.001426
  FORCE total and by dimension    0.002017    0.001426
  Stress total and by dimension    0.124153    0.072692


--------------------------------------------------------------------------------------------------------


  
 reached required accuracy - stopping structural energy minimisation
     LOOP+:  cpu time     18.2915: real time     18.3203
    4ORBIT:  cpu time      0.0000: real time      0.0000



 total charge

# of ion       s       p       d       tot
------------------------------------------
    1        1.612   3.272   0.000   4.884
    2        1.612   3.272   0.000   4.884
--------------------------------------------------
tot          3.224   6.544   0.000   9.768



 magnetization (x)

# of ion       s       p       d       tot
------------------------------------------
    1       -0.000  -0.000   0.000  -0.000
    2       -0.000  -0.000   0.000  -0.000
--------------------------------------------------
tot         -0.000  -0.000   0.000  -0.000
 

 total amount of memory used by VASP MPI-rank0   200945. kBytes
=======================================================================

   base      :      30000. kBytes
   nonl-proj :       3058. kBytes
   fftplans  :      49674. kBytes
   grid      :     115148. kBytes
   one-center:          6. kBytes
   wavefun   :       3059. kBytes
 
  
  
 General timing and accounting informations for this job:
 ========================================================
  
                  Total CPU time used (sec):      445.292
                            User time (sec):      443.558
                          System time (sec):        1.734
                         Elapsed time (sec):      445.956
  
                   Maximum memory used (kb):      480756.
                   Average memory used (kb):          N/A
  
                          Minor page faults:       246318
                          Major page faults:            0
                 Voluntary context switches:          575
