 vasp.6.4.1 05Apr23 (build Jul 31 2023 22:51:27) complex                        
  
 executed on             LinuxIFC date 2026.01.12  14:50:11
 running   32 mpi-ranks, with    1 threads/rank, on    1 nodes
 distrk:  each k-point on   32 cores,    1 groups
 distr:  one band on NCORE=   8 cores,    4 groups


--------------------------------------------------------------------------------------------------------


 INCAR:
   ALGO = Fast
   EDIFF = 1e-06
   EDIFFG = -0.02
   ENCUT = 520.0
   IBRION = 2
   ISIF = 2
   ISMEAR = 0
   ISPIN = 2
   ISYM = 0
   IVDW = 11
   LASPH = True
   LCHARG = False
   LDAU = False
   LORBIT = 11
   LREAL = False
   LWAVE = False
   NUPDOWN = 2
   MAGMOM = 2*1.0
   NELM = 100
   NSW = 500
   PREC = Accurate
   SIGMA = 0.01
   NCORE = 8

 POTCAR:    PAW_PBE O 08Apr2002                   
 POTCAR:    PAW_PBE O 08Apr2002                   
   VRHFIN =O: s2p4                                                                                  
   LEXCH  = PE                                                                                      
   EATOM  =   432.3788 eV,   31.7789 Ry                                                             
                                                                                                    
   TITEL  = PAW_PBE O 08Apr2002                                                                     
   LULTRA =        F    use ultrasoft PP ?                                                          
   IUNSCR =        1    unscreen: 0-lin 1-nonlin 2-no                                               
   RPACOR =    1.200    partial core radius                                                         
   POMASS =   16.000; ZVAL   =    6.000    mass and valenz                                          
   RCORE  =    1.520    outmost cutoff radius                                                       
   RWIGS  =    1.550; RWIGS  =    0.820    wigner-seitz radius (au A)                               
   ENMAX  =  400.000; ENMIN  =  300.000 eV                                                          
   ICORE  =        2    local potential                                                             
   LCOR   =        T    correct aug charges                                                         
   LPAW   =        T    paw PP                                                                      
   EAUG   =  605.392                                                                                
   DEXC   =    0.000                                                                                
   RMAX   =    1.553    core radius for proj-oper                                                   
   RAUG   =    1.300    factor for augmentation sphere                                              
   RDEP   =    1.550    radius for radial grids                                                     
   RDEPT  =    1.329    core radius for aug-charge                                                  
                                                                                                    
   Atomic configuration                                                                             
    4 entries                                                                                       
     n  l   j            E        occ.                                                              
     1  0  0.50      -514.6923   2.0000                                                             
     2  0  0.50       -23.9615   2.0000                                                             
     2  1  0.50        -9.0305   4.0000                                                             
     3  2  1.50        -9.5241   0.0000                                                             
   Description                                                                                      
     l       E           TYP  RCUT    TYP  RCUT                                                     
     0    -23.9615318     23  1.200                                                                 
     0     -9.5240782     23  1.200                                                                 
     1     -9.0304911     23  1.520                                                                 
     1      8.1634956     23  1.520                                                                 
     2     -9.5240782      7  1.500                                                                 
  local pseudopotential read in
  partial core-charges read in
  partial kinetic energy density read in
  kinetic energy density of atom read in
  atomic valenz-charges read in
  non local Contribution for L=           0  read in
    real space projection operators read in
  non local Contribution for L=           0  read in
    real space projection operators read in
  non local Contribution for L=           1  read in
    real space projection operators read in
  non local Contribution for L=           1  read in
    real space projection operators read in
    PAW grid and wavefunctions read in
 
   number of l-projection  operators is LMAX  =           4
   number of lm-projection operators is LMMAX =           8
 
  PAW_PBE O 08Apr2002                   :
 energy of atom  1       EATOM= -432.3788
 kinetic energy error for atom=    0.0208 (will be added to EATOM!!)
 
 
 POSCAR: O2
  positions in direct lattice
  No initial velocities read in
 exchange correlation table for  LEXCH =        8
   RHO(1)=    0.500       N(1)  =     2000
   RHO(2)=  100.500       N(2)  =     4000

 VTST: version 4.1, (05/19/21)

 CHAIN: initializing optimizer
 
 OPT: Using VASP Conjugate-Gradient optimizer
 CHAIN: Read ICHAIN            0
 
 POSCAR: O2
  positions in direct lattice
  No initial velocities read in
 


--------------------------------------------------------------------------------------------------------


 ion  position               nearest neighbor table
   1  0.527  0.500  0.500-   2 1.15
   2  0.473  0.500  0.500-   1 1.15
 

IMPORTANT INFORMATION: All symmetrisations will be switched off!
NOSYMM: (Re-)initialisation of all symmetry stuff for point group C_1.


----------------------------------------------------------------------------------------

                                     Primitive cell                                     

  volume of cell :    9462.1190

  direct lattice vectors                    reciprocal lattice vectors
    21.150930000  0.000000000  0.000000000     0.047279245  0.000000000  0.000000000
     0.000000000 21.150930000  0.000000000     0.000000000  0.047279245  0.000000000
     0.000000000  0.000000000 21.150930000     0.000000000  0.000000000  0.047279245

  length of vectors
    21.150930000 21.150930000 21.150930000     0.047279245  0.047279245  0.047279245

  position of ions in fractional coordinates (direct lattice)
     0.527207551  0.500000000  0.500000000
     0.472792449  0.500000000  0.500000000

  ion indices of the primitive-cell ions
   primitive index   ion index
                 1           1
                 2           2

----------------------------------------------------------------------------------------

 
 
 KPOINTS: Automatic kpoint scheme                 

Automatic generation of k-mesh.
 Grid dimensions read from file:
 generate k-points for:    1    1    1

 Generating k-lattice:

  Cartesian coordinates                     Fractional coordinates (reciprocal lattice)
     0.047279245  0.000000000  0.000000000     1.000000000  0.000000000  0.000000000
     0.000000000  0.047279245  0.000000000     0.000000000  1.000000000  0.000000000
     0.000000000  0.000000000  0.047279245     0.000000000  0.000000000  1.000000000

  Length of vectors
     0.047279245  0.047279245  0.047279245

  Shift w.r.t. Gamma in fractional coordinates (k-lattice)
     0.000000000  0.000000000  0.000000000

 
 Subroutine IBZKPT returns following result:
 ===========================================
 
 Found      1 irreducible k-points:
 
 Following reciprocal coordinates:
            Coordinates               Weight
  0.000000  0.000000  0.000000      1.000000
 
 Following cartesian coordinates:
            Coordinates               Weight
  0.000000  0.000000  0.000000      1.000000
 


--------------------------------------------------------------------------------------------------------




 Dimension of arrays:
   k-points           NKPTS =      1   k-points in BZ     NKDIM =      1   number of bands    NBANDS=     12
   number of dos      NEDOS =    301   number of ions     NIONS =      2
   non local maximal  LDIM  =      4   non local SUM 2l+1 LMDIM =      8
   total plane-waves  NPLWV = ******
   max r-space proj   IRMAX =      1   max aug-charges    IRDMAX=   5815
   dimension x,y,z NGX =   160 NGY =  160 NGZ =  160
   dimension x,y,z NGXF=   320 NGYF=  320 NGZF=  320
   support grid    NGXF=   320 NGYF=  320 NGZF=  320
   ions per type =               2
   NGX,Y,Z   is equivalent  to a cutoff of  12.58, 12.58, 12.58 a.u.
   NGXF,Y,Z  is equivalent  to a cutoff of  25.15, 25.15, 25.15 a.u.

 SYSTEM =  unknown system                          
 POSCAR =  O2                                      

 Startparameter for this run:
   NWRITE =      2    write-flag & timer
   PREC   = accura    normal or accurate (medium, high low for compatibility)
   ISTART =      0    job   : 0-new  1-cont  2-samecut
   ICHARG =      2    charge: 1-file 2-atom 10-const
   ISPIN  =      2    spin polarized calculation?
   LNONCOLLINEAR =      F non collinear calculations
   LSORBIT =      F    spin-orbit coupling
   INIWAV =      1    electr: 0-lowe 1-rand  2-diag
   LASPH  =      T    aspherical Exc in radial PAW
 Electronic Relaxation 1
   ENCUT  =  520.0 eV  38.22 Ry    6.18 a.u.  39.33 39.33 39.33*2*pi/ulx,y,z
   ENINI  =  520.0     initial cutoff
   ENAUG  =  605.4 eV  augmentation charge cutoff
   NELM   =    100;   NELMIN=  2; NELMDL= -5     # of ELM steps 
   EDIFF  = 0.1E-05   stopping-criterion for ELM
   LREAL  =      F    real-space projection
   NLSPLINE    = F    spline interpolate recip. space projectors
   LCOMPAT=      F    compatible to vasp.4.4
   GGA_COMPAT  = T    GGA compatible to vasp.4.4-vasp.4.6
   LMAXPAW     = -100 max onsite density
   LMAXMIX     =    2 max onsite mixed and CHGCAR
   VOSKOWN=      0    Vosko Wilk Nusair interpolation
   ROPT   =    0.00000
 Ionic relaxation
   EDIFFG = -.2E-01   stopping-criterion for IOM
   NSW    =    500    number of steps for IOM
   NBLOCK =      1;   KBLOCK =    500    inner block; outer block 
   IBRION =      2    ionic relax: 0-MD 1-quasi-New 2-CG
   NFREE  =      1    steps in history (QN), initial steepest desc. (CG)
   ISIF   =      2    stress and relaxation
   IWAVPR =     11    prediction:  0-non 1-charg 2-wave 3-comb
   ISYM   =      0    0-nonsym 1-usesym 2-fastsym
   LCORR  =      T    Harris-Foulkes like correction to forces

   POTIM  = 0.5000    time-step for ionic-motion
   TEIN   =    0.0    initial temperature
   TEBEG  =    0.0;   TEEND  =   0.0 temperature during run
   SMASS  =  -3.00    Nose mass-parameter (am)
   estimated Nose-frequenzy (Omega)   =  0.10E-29 period in steps = 0.13E+47 mass=  -0.102E-25a.u.
   SCALEE = 1.0000    scale energy and forces
   NPACO  =    256;   APACO  = 10.0  distance and # of slots for P.C.
   PSTRESS=    0.0 pullay stress

  Mass of Ions in am
   POMASS =  16.00
  Ionic Valenz
   ZVAL   =   6.00
  Atomic Wigner-Seitz radii
   RWIGS  =  -1.00
  virtual crystal weights 
   VCA    =   1.00
   NELECT =      12.0000    total number of electrons
   NUPDOWN=       2.0000    fix difference up-down

 DOS related values:
   EMIN   =  10.00;   EMAX   =-10.00  energy-range for DOS
   EFERMI =   0.00;   METHOD = LEGACY      
   ISMEAR =     0;   SIGMA  =   0.01  broadening in eV -4-tet -1-fermi 0-gaus

 Electronic relaxation 2 (details)
   IALGO  =     68    algorithm
   LDIAG  =      T    sub-space diagonalisation (order eigenvalues)
   LSUBROT=      F    optimize rotation matrix (better conditioning)
   TURBO    =      0    0=normal 1=particle mesh
   IRESTART =      0    0=no restart 2=restart with 2 vectors
   NREBOOT  =      0    no. of reboots
   NMIN     =      0    reboot dimension
   EREF     =   0.00    reference energy to select bands
   IMIX   =      4    mixing-type and parameters
     AMIX     =   0.40;   BMIX     =  1.00
     AMIX_MAG =   1.60;   BMIX_MAG =  1.00
     AMIN     =   0.10
     WC   =   100.;   INIMIX=   1;  MIXPRE=   1;  MAXMIX= -45

 Intra band minimization:
   WEIMIN = 0.0010     energy-eigenvalue tresh-hold
   EBREAK =  0.21E-07  absolut break condition
   DEPER  =   0.30     relativ break condition  

   TIME   =   0.40     timestep for ELM

  volume/ion in A,a.u.               =    4731.06     31926.76
  Fermi-wavevector in a.u.,A,eV,Ry     =   0.177204  0.334866  0.427238  0.031401
  Thomas-Fermi vector in A             =   0.897615
 
 Write flags
   LWAVE        =      F    write WAVECAR
   LDOWNSAMPLE  =      F    k-point downsampling of WAVECAR
   LCHARG       =      F    write CHGCAR
   LVTOT        =      F    write LOCPOT, total local potential
   LVHAR        =      F    write LOCPOT, Hartree potential only
   LELF         =      F    write electronic localiz. function (ELF)
   LORBIT       =     11    0 simple, 1 ext, 2 COOP (PROOUT), +10 PAW based schemes


 Dipole corrections
   LMONO  =      F    monopole corrections only (constant potential shift)
   LDIPOL =      F    correct potential (dipole corrections)
   IDIPOL =      0    1-x, 2-y, 3-z, 4-all directions 
   EPSILON=  1.0000000 bulk dielectric constant

 Exchange correlation treatment:
   GGA     =    --    GGA type
   LEXCH   =     8    internal setting for exchange type
   LIBXC   =     F    Libxc                    
   VOSKOWN =     0    Vosko Wilk Nusair interpolation
   LHFCALC =     F    Hartree Fock is set to
   LHFONE  =     F    Hartree Fock one center treatment
   AEXX    =    0.0000 exact exchange contribution

 Linear response parameters
   LEPSILON=     F    determine dielectric tensor
   LRPA    =     F    only Hartree local field effects (RPA)
   LNABLA  =     F    use nabla operator in PAW spheres
   LVEL    =     F    velocity operator in full k-point grid
   CSHIFT  =0.1000    complex shift for real part using Kramers Kronig
   OMEGAMAX=  -1.0    maximum frequency
   DEG_THRESHOLD= 0.2000000E-02 threshold for treating states as degnerate
   RTIME   =   -0.100 relaxation time in fs
  (WPLASMAI=    0.000 imaginary part of plasma frequency in eV, 0.658/RTIME)
   DFIELD  = 0.0000000 0.0000000 0.0000000 field for delta impulse in time
 
  Optional k-point grid parameters
   LKPOINTS_OPT  =     F    use optional k-point grid
   KPOINTS_OPT_MODE=     1    mode for optional k-point grid
 
 Orbital magnetization related:
   ORBITALMAG=     F  switch on orbital magnetization
   LCHIMAG   =     F  perturbation theory with respect to B field
   DQ        =  0.001000  dq finite difference perturbation B field
   LLRAUG    =     F  two centre corrections for induced B field
   LBONE     =     F  B-component reconstruction in AE one-centre
   LVGVCALC  =     T  calculate vGv susceptibility
   LVGVAPPL  =     F  apply vGv susceptibility instead of pGv for G=0

 Random number generation:
   RANDOM_GENERATOR = DEFAULT
   PCG_SEED         = not used


--------------------------------------------------------------------------------------------------------


 conjugate gradient relaxation of ions
 charge density and potential will be updated during run
 spin polarized calculation
 RMM-DIIS sequential band-by-band and
  variant of blocked Davidson during initial phase
 perform sub-space diagonalisation
    before iterative eigenvector-optimisation
 modified Broyden-mixing scheme, WC =      100.0
 initial mixing is a Kerker type mixing with AMIX =  0.4000 and BMIX =      1.0000
 Hartree-type preconditioning will be used
 using additional bands            6
 reciprocal scheme for non local part
 use partial core corrections
 calculate Harris-corrections to forces 
   (improved forces if not selfconsistent)
 use gradient corrections 
 use of overlap-Matrix (Vanderbilt PP)
 Gauss-broadening in eV      SIGMA  =   0.01


--------------------------------------------------------------------------------------------------------


  energy-cutoff  :      520.00
  volume of cell :     9462.12
      direct lattice vectors                 reciprocal lattice vectors
    21.150930000  0.000000000  0.000000000     0.047279245  0.000000000  0.000000000
     0.000000000 21.150930000  0.000000000     0.000000000  0.047279245  0.000000000
     0.000000000  0.000000000 21.150930000     0.000000000  0.000000000  0.047279245

  length of vectors
    21.150930000 21.150930000 21.150930000     0.047279245  0.047279245  0.047279245


 
 k-points in units of 2pi/SCALE and weight: Automatic kpoint scheme                 
   0.00000000  0.00000000  0.00000000       1.000
 
 k-points in reciprocal lattice and weights: Automatic kpoint scheme                 
   0.00000000  0.00000000  0.00000000       1.000
 
 position of ions in fractional coordinates (direct lattice) 
   0.52720755  0.50000000  0.50000000
   0.47279245  0.50000000  0.50000000
 
 position of ions in cartesian coordinates  (Angst):
  11.15093000 10.57546500 10.57546500
  10.00000000 10.57546500 10.57546500
 


--------------------------------------------------------------------------------------------------------


 k-point   1 :   0.0000 0.0000 0.0000  plane waves:  254823

 maximum and minimum number of plane-waves per node :     31868    31840

 maximum number of plane-waves:    254823
 maximum index in each direction: 
   IXMAX=   39   IYMAX=   39   IZMAX=   39
   IXMIN=  -39   IYMIN=  -39   IZMIN=  -39


 parallel 3D FFT for wavefunctions:
    minimum data exchange during FFTs selected (reduces bandwidth)
 parallel 3D FFT for charge:
    minimum data exchange during FFTs selected (reduces bandwidth)


 total amount of memory used by VASP MPI-rank0   200945. kBytes
=======================================================================

   base      :      30000. kBytes
   nonl-proj :       3058. kBytes
   fftplans  :      49674. kBytes
   grid      :     115148. kBytes
   one-center:          6. kBytes
   wavefun   :       3059. kBytes
 
     INWAV:  cpu time      0.0000: real time      0.0001
 Broyden mixing: mesh for mixing (old mesh)
   NGX = 79   NGY = 79   NGZ = 79
  (NGX  =320   NGY  =320   NGZ  =320)
  gives a total of 493039 points

 initial charge density was supplied:
 charge density of overlapping atoms calculated
 number of electron      12.0000000 magnetization       2.0000000
 keeping initial charge density in first step


--------------------------------------------------------------------------------------------------------


 Maximum index for augmentation-charges          137 (set IRDMAX)


--------------------------------------------------------------------------------------------------------


 First call to EWALD:  gamma=   0.084
 Maximum number of real-space cells 3x 3x 3
 Maximum number of reciprocal cells 3x 3x 3

    FEWALD:  cpu time      0.0010: real time      0.0010


--------------------------------------- Ionic step        1  -------------------------------------------




--------------------------------------- Iteration      1(   1)  ---------------------------------------


    POTLOK:  cpu time      1.6458: real time      1.6478
    SETDIJ:  cpu time      0.1317: real time      0.1318
     EDDAV:  cpu time      1.1177: real time      1.1197
       DOS:  cpu time      0.0003: real time      0.0004
    --------------------------------------------
      LOOP:  cpu time      2.8955: real time      2.8995

 eigenvalue-minimisations  :    80
 total energy-change (2. order) : 0.1171582E+03  (-0.1914123E+03)
 number of electron      12.0000000 magnetization       2.0000000
 augmentation part       12.0000000 magnetization       2.0000000

 Free energy of the ion-electron system (eV)
  ---------------------------------------------------
  alpha Z        PSCENC =         0.05874137
  Ewald energy   TEWEN  =       311.48458658
  -Hartree energ DENC   =     -1030.25824970
  -exchange      EXHF   =         0.00000000
  -V(xc)+E(xc)   XCENC  =        55.12786460
  PAW double counting   =       692.81204765     -696.39983308
  entropy T*S    EENTRO =        -0.00004368
  eigenvalues    EBANDS =       -80.38287956
  atomic energy  EATOM  =       864.71597305
  Solvation  Ediel_sol  =         0.00000000
  ---------------------------------------------------
  free energy    TOTEN  =       117.15820722 eV

  energy without entropy =      117.15825090  energy(sigma->0) =      117.15822906


--------------------------------------------------------------------------------------------------------




--------------------------------------- Iteration      1(   2)  ---------------------------------------


     EDDAV:  cpu time      0.9154: real time      0.9167
       DOS:  cpu time      0.0001: real time      0.0001
    --------------------------------------------
      LOOP:  cpu time      0.9155: real time      0.9168

 eigenvalue-minimisations  :    64
 total energy-change (2. order) :-0.8235979E+02  (-0.8203341E+02)
 number of electron      12.0000000 magnetization       2.0000000
 augmentation part       12.0000000 magnetization       2.0000000

 Free energy of the ion-electron system (eV)
  ---------------------------------------------------
  alpha Z        PSCENC =         0.05874137
  Ewald energy   TEWEN  =       311.48458658
  -Hartree energ DENC   =     -1030.25824970
  -exchange      EXHF   =         0.00000000
  -V(xc)+E(xc)   XCENC  =        55.12786460
  PAW double counting   =       692.81204765     -696.39983308
  entropy T*S    EENTRO =        -0.00000000
  eigenvalues    EBANDS =      -162.74271313
  atomic energy  EATOM  =       864.71597305
  Solvation  Ediel_sol  =         0.00000000
  ---------------------------------------------------
  free energy    TOTEN  =        34.79841733 eV

  energy without entropy =       34.79841733  energy(sigma->0) =       34.79841733


--------------------------------------------------------------------------------------------------------




--------------------------------------- Iteration      1(   3)  ---------------------------------------


     EDDAV:  cpu time      0.9191: real time      0.9200
       DOS:  cpu time      0.0004: real time      0.0004
    --------------------------------------------
      LOOP:  cpu time      0.9194: real time      0.9204

 eigenvalue-minimisations  :    64
 total energy-change (2. order) :-0.2823196E+02  (-0.2820091E+02)
 number of electron      12.0000000 magnetization       2.0000000
 augmentation part       12.0000000 magnetization       2.0000000

 Free energy of the ion-electron system (eV)
  ---------------------------------------------------
  alpha Z        PSCENC =         0.05874137
  Ewald energy   TEWEN  =       311.48458658
  -Hartree energ DENC   =     -1030.25824970
  -exchange      EXHF   =         0.00000000
  -V(xc)+E(xc)   XCENC  =        55.12786460
  PAW double counting   =       692.81204765     -696.39983308
  entropy T*S    EENTRO =        -0.00000000
  eigenvalues    EBANDS =      -190.97467135
  atomic energy  EATOM  =       864.71597305
  Solvation  Ediel_sol  =         0.00000000
  ---------------------------------------------------
  free energy    TOTEN  =         6.56645911 eV

  energy without entropy =        6.56645911  energy(sigma->0) =        6.56645911


--------------------------------------------------------------------------------------------------------




--------------------------------------- Iteration      1(   4)  ---------------------------------------


     EDDAV:  cpu time      1.0876: real time      1.0888
       DOS:  cpu time      0.0001: real time      0.0001
    --------------------------------------------
      LOOP:  cpu time      1.0878: real time      1.0889

 eigenvalue-minimisations  :    80
 total energy-change (2. order) :-0.1187061E+02  (-0.7890230E+01)
 number of electron      12.0000000 magnetization       2.0000000
 augmentation part       12.0000000 magnetization       2.0000000

 Free energy of the ion-electron system (eV)
  ---------------------------------------------------
  alpha Z        PSCENC =         0.05874137
  Ewald energy   TEWEN  =       311.48458658
  -Hartree energ DENC   =     -1030.25824970
  -exchange      EXHF   =         0.00000000
  -V(xc)+E(xc)   XCENC  =        55.12786460
  PAW double counting   =       692.81204765     -696.39983308
  entropy T*S    EENTRO =        -0.00000000
  eigenvalues    EBANDS =      -202.84528380
  atomic energy  EATOM  =       864.71597305
  Solvation  Ediel_sol  =         0.00000000
  ---------------------------------------------------
  free energy    TOTEN  =        -5.30415333 eV

  energy without entropy =       -5.30415333  energy(sigma->0) =       -5.30415333


--------------------------------------------------------------------------------------------------------




--------------------------------------- Iteration      1(   5)  ---------------------------------------


     EDDAV:  cpu time      1.0020: real time      1.0030
       DOS:  cpu time      0.0003: real time      0.0003
    CHARGE:  cpu time      0.2296: real time      0.2299
    MIXING:  cpu time      0.0351: real time      0.0351
    --------------------------------------------
      LOOP:  cpu time      1.2670: real time      1.2682

 eigenvalue-minimisations  :    72
 total energy-change (2. order) :-0.4193513E+01  (-0.4193065E+01)
 number of electron      11.9999995 magnetization       2.0000000
 augmentation part        1.2375136 magnetization       0.4910377

 Broyden mixing:
  rms(total) = 0.67717E+00    rms(broyden)= 0.67524E+00
  rms(prec ) = 0.68700E+00
  weight for this iteration     100.00

 Free energy of the ion-electron system (eV)
  ---------------------------------------------------
  alpha Z        PSCENC =         0.05874137
  Ewald energy   TEWEN  =       311.48458658
  -Hartree energ DENC   =     -1030.25824970
  -exchange      EXHF   =         0.00000000
  -V(xc)+E(xc)   XCENC  =        55.12786460
  PAW double counting   =       692.81204765     -696.39983308
  entropy T*S    EENTRO =        -0.00000000
  eigenvalues    EBANDS =      -207.03879645
  atomic energy  EATOM  =       864.71597305
  Solvation  Ediel_sol  =         0.00000000
  ---------------------------------------------------
  free energy    TOTEN  =        -9.49766599 eV

  energy without entropy =       -9.49766599  energy(sigma->0) =       -9.49766599


--------------------------------------------------------------------------------------------------------




--------------------------------------- Iteration      1(   6)  ---------------------------------------


    POTLOK:  cpu time      1.5885: real time      1.5898
    SETDIJ:  cpu time      0.1318: real time      0.1319
    EDDIAG:  cpu time      0.2181: real time      0.2183
  RMM-DIIS:  cpu time      0.8200: real time      0.8207
    ORTHCH:  cpu time      0.0043: real time      0.0043
       DOS:  cpu time      0.0001: real time      0.0001
    CHARGE:  cpu time      0.2135: real time      0.2137
    MIXING:  cpu time      0.0391: real time      0.0392
    --------------------------------------------
      LOOP:  cpu time      3.0154: real time      3.0179

 eigenvalue-minimisations  :    48
 total energy-change (2. order) : 0.1334919E+00  (-0.1856353E+00)
 number of electron      11.9999995 magnetization       1.9999999
 augmentation part        1.2271614 magnetization       0.5035452

 Broyden mixing:
  rms(total) = 0.32064E+00    rms(broyden)= 0.32034E+00
  rms(prec ) = 0.32644E+00
  weight for this iteration     100.00

 eigenvalues of (default mixing * dielectric matrix)
  average eigenvalue GAMMA=   0.7532
  0.7532

 Free energy of the ion-electron system (eV)
  ---------------------------------------------------
  alpha Z        PSCENC =         0.05874137
  Ewald energy   TEWEN  =       311.48458658
  -Hartree energ DENC   =     -1036.01709519
  -exchange      EXHF   =         0.00000000
  -V(xc)+E(xc)   XCENC  =        55.91588595
  PAW double counting   =       789.57557991     -793.14125146
  entropy T*S    EENTRO =        -0.00000000
  eigenvalues    EBANDS =      -201.95659431
  atomic energy  EATOM  =       864.71597305
  Solvation  Ediel_sol  =         0.00000000
  ---------------------------------------------------
  free energy    TOTEN  =        -9.36417411 eV

  energy without entropy =       -9.36417411  energy(sigma->0) =       -9.36417411


--------------------------------------------------------------------------------------------------------




--------------------------------------- Iteration      1(   7)  ---------------------------------------


    POTLOK:  cpu time      1.5863: real time      1.5877
    SETDIJ:  cpu time      0.1303: real time      0.1304
    EDDIAG:  cpu time      0.2133: real time      0.2135
  RMM-DIIS:  cpu time      0.8241: real time      0.8248
    ORTHCH:  cpu time      0.0042: real time      0.0042
       DOS:  cpu time      0.0001: real time      0.0001
    CHARGE:  cpu time      0.2183: real time      0.2185
    MIXING:  cpu time      0.0310: real time      0.0310
    --------------------------------------------
      LOOP:  cpu time      3.0076: real time      3.0101

 eigenvalue-minimisations  :    50
 total energy-change (2. order) :-0.2125916E+00  (-0.5316990E-01)
 number of electron      11.9999995 magnetization       1.9999998
 augmentation part        1.2116931 magnetization       0.4941537

 Broyden mixing:
  rms(total) = 0.15558E+00    rms(broyden)= 0.15556E+00
  rms(prec ) = 0.15900E+00
  weight for this iteration     100.00

 eigenvalues of (default mixing * dielectric matrix)
  average eigenvalue GAMMA=   1.2123
  1.7205  0.7041

 Free energy of the ion-electron system (eV)
  ---------------------------------------------------
  alpha Z        PSCENC =         0.05874137
  Ewald energy   TEWEN  =       311.48458658
  -Hartree energ DENC   =     -1038.53015708
  -exchange      EXHF   =         0.00000000
  -V(xc)+E(xc)   XCENC  =        55.87048014
  PAW double counting   =       842.83938421     -846.58656520
  entropy T*S    EENTRO =        -0.00000000
  eigenvalues    EBANDS =      -199.42920876
  atomic energy  EATOM  =       864.71597305
  Solvation  Ediel_sol  =         0.00000000
  ---------------------------------------------------
  free energy    TOTEN  =        -9.57676569 eV

  energy without entropy =       -9.57676569  energy(sigma->0) =       -9.57676569


--------------------------------------------------------------------------------------------------------




--------------------------------------- Iteration      1(   8)  ---------------------------------------


    POTLOK:  cpu time      1.5642: real time      1.5655
    SETDIJ:  cpu time      0.1317: real time      0.1317
    EDDIAG:  cpu time      0.2142: real time      0.2144
  RMM-DIIS:  cpu time      0.8286: real time      0.8293
    ORTHCH:  cpu time      0.0041: real time      0.0041
       DOS:  cpu time      0.0001: real time      0.0001
    CHARGE:  cpu time      0.2140: real time      0.2142
    MIXING:  cpu time      0.0361: real time      0.0361
    --------------------------------------------
      LOOP:  cpu time      2.9929: real time      2.9956

 eigenvalue-minimisations  :    50
 total energy-change (2. order) : 0.4736300E-02  (-0.1896972E-01)
 number of electron      11.9999995 magnetization       1.9999998
 augmentation part        1.2021639 magnetization       0.4934837

 Broyden mixing:
  rms(total) = 0.47634E-01    rms(broyden)= 0.47601E-01
  rms(prec ) = 0.48332E-01
  weight for this iteration     100.00

 eigenvalues of (default mixing * dielectric matrix)
  average eigenvalue GAMMA=   1.1377
  1.9504  0.7836  0.6793

 Free energy of the ion-electron system (eV)
  ---------------------------------------------------
  alpha Z        PSCENC =         0.05874137
  Ewald energy   TEWEN  =       311.48458658
  -Hartree energ DENC   =     -1040.54661304
  -exchange      EXHF   =         0.00000000
  -V(xc)+E(xc)   XCENC  =        56.04252814
  PAW double counting   =       915.91654858     -919.67204654
  entropy T*S    EENTRO =        -0.00000000
  eigenvalues    EBANDS =      -197.57174753
  atomic energy  EATOM  =       864.71597305
  Solvation  Ediel_sol  =         0.00000000
  ---------------------------------------------------
  free energy    TOTEN  =        -9.57202939 eV

  energy without entropy =       -9.57202939  energy(sigma->0) =       -9.57202939


--------------------------------------------------------------------------------------------------------




--------------------------------------- Iteration      1(   9)  ---------------------------------------


    POTLOK:  cpu time      1.5801: real time      1.5815
    SETDIJ:  cpu time      0.1306: real time      0.1306
    EDDIAG:  cpu time      0.2136: real time      0.2138
  RMM-DIIS:  cpu time      0.8246: real time      0.8254
    ORTHCH:  cpu time      0.0042: real time      0.0042
       DOS:  cpu time      0.0001: real time      0.0001
    CHARGE:  cpu time      0.2191: real time      0.2193
    MIXING:  cpu time      0.0324: real time      0.0324
    --------------------------------------------
      LOOP:  cpu time      3.0047: real time      3.0073

 eigenvalue-minimisations  :    50
 total energy-change (2. order) :-0.7182528E-02  (-0.2065699E-02)
 number of electron      11.9999995 magnetization       1.9999998
 augmentation part        1.2011484 magnetization       0.4939755

 Broyden mixing:
  rms(total) = 0.26111E-01    rms(broyden)= 0.26106E-01
  rms(prec ) = 0.26622E-01
  weight for this iteration     100.00

 eigenvalues of (default mixing * dielectric matrix)
  average eigenvalue GAMMA=   1.3202
  2.0847  1.7900  0.7426  0.6637

 Free energy of the ion-electron system (eV)
  ---------------------------------------------------
  alpha Z        PSCENC =         0.05874137
  Ewald energy   TEWEN  =       311.48458658
  -Hartree energ DENC   =     -1040.31599502
  -exchange      EXHF   =         0.00000000
  -V(xc)+E(xc)   XCENC  =        56.03379146
  PAW double counting   =       929.35044591     -933.10569501
  entropy T*S    EENTRO =        -0.00000000
  eigenvalues    EBANDS =      -197.80106024
  atomic energy  EATOM  =       864.71597305
  Solvation  Ediel_sol  =         0.00000000
  ---------------------------------------------------
  free energy    TOTEN  =        -9.57921192 eV

  energy without entropy =       -9.57921192  energy(sigma->0) =       -9.57921192


--------------------------------------------------------------------------------------------------------




--------------------------------------- Iteration      1(  10)  ---------------------------------------


    POTLOK:  cpu time      1.5604: real time      1.5618
    SETDIJ:  cpu time      0.1326: real time      0.1326
    EDDIAG:  cpu time      0.2144: real time      0.2147
  RMM-DIIS:  cpu time      0.7958: real time      0.7965
    ORTHCH:  cpu time      0.0042: real time      0.0042
       DOS:  cpu time      0.0001: real time      0.0001
    CHARGE:  cpu time      0.2189: real time      0.2191
    MIXING:  cpu time      0.0374: real time      0.0374
    --------------------------------------------
      LOOP:  cpu time      2.9638: real time      2.9664

 eigenvalue-minimisations  :    48
 total energy-change (2. order) :-0.1852380E-02  (-0.5376682E-03)
 number of electron      11.9999995 magnetization       1.9999997
 augmentation part        1.2016777 magnetization       0.4945910

 Broyden mixing:
  rms(total) = 0.66658E-02    rms(broyden)= 0.66561E-02
  rms(prec ) = 0.69894E-02
  weight for this iteration     100.00

 eigenvalues of (default mixing * dielectric matrix)
  average eigenvalue GAMMA=   1.2823
  2.3047  1.8451  0.8727  0.7023  0.6867

 Free energy of the ion-electron system (eV)
  ---------------------------------------------------
  alpha Z        PSCENC =         0.05874137
  Ewald energy   TEWEN  =       311.48458658
  -Hartree energ DENC   =     -1040.00271851
  -exchange      EXHF   =         0.00000000
  -V(xc)+E(xc)   XCENC  =        56.00754231
  PAW double counting   =       943.16925504     -946.88847220
  entropy T*S    EENTRO =        -0.00000000
  eigenvalues    EBANDS =      -198.12597193
  atomic energy  EATOM  =       864.71597305
  Solvation  Ediel_sol  =         0.00000000
  ---------------------------------------------------
  free energy    TOTEN  =        -9.58106430 eV

  energy without entropy =       -9.58106430  energy(sigma->0) =       -9.58106430


--------------------------------------------------------------------------------------------------------




--------------------------------------- Iteration      1(  11)  ---------------------------------------


    POTLOK:  cpu time      1.5752: real time      1.5766
    SETDIJ:  cpu time      0.1315: real time      0.1315
    EDDIAG:  cpu time      0.2124: real time      0.2126
  RMM-DIIS:  cpu time      0.8251: real time      0.8258
    ORTHCH:  cpu time      0.0042: real time      0.0042
       DOS:  cpu time      0.0001: real time      0.0001
    CHARGE:  cpu time      0.2192: real time      0.2194
    MIXING:  cpu time      0.0341: real time      0.0341
    --------------------------------------------
      LOOP:  cpu time      3.0017: real time      3.0043

 eigenvalue-minimisations  :    50
 total energy-change (2. order) :-0.7676941E-03  (-0.1304570E-03)
 number of electron      11.9999995 magnetization       1.9999997
 augmentation part        1.2014214 magnetization       0.4944935

 Broyden mixing:
  rms(total) = 0.41428E-02    rms(broyden)= 0.41412E-02
  rms(prec ) = 0.44387E-02
  weight for this iteration     100.00

 eigenvalues of (default mixing * dielectric matrix)
  average eigenvalue GAMMA=   1.2768
  2.3129  1.8193  1.4305  0.7566  0.6706  0.6706

 Free energy of the ion-electron system (eV)
  ---------------------------------------------------
  alpha Z        PSCENC =         0.05874137
  Ewald energy   TEWEN  =       311.48458658
  -Hartree energ DENC   =     -1040.16904180
  -exchange      EXHF   =         0.00000000
  -V(xc)+E(xc)   XCENC  =        56.01393841
  PAW double counting   =       944.86495693     -948.58595633
  entropy T*S    EENTRO =        -0.00000000
  eigenvalues    EBANDS =      -197.96503020
  atomic energy  EATOM  =       864.71597305
  Solvation  Ediel_sol  =         0.00000000
  ---------------------------------------------------
  free energy    TOTEN  =        -9.58183199 eV

  energy without entropy =       -9.58183199  energy(sigma->0) =       -9.58183199


--------------------------------------------------------------------------------------------------------




--------------------------------------- Iteration      1(  12)  ---------------------------------------


    POTLOK:  cpu time      1.5596: real time      1.5609
    SETDIJ:  cpu time      0.1319: real time      0.1319
    EDDIAG:  cpu time      0.2131: real time      0.2133
  RMM-DIIS:  cpu time      0.8269: real time      0.8276
    ORTHCH:  cpu time      0.0041: real time      0.0041
       DOS:  cpu time      0.0001: real time      0.0001
    CHARGE:  cpu time      0.2173: real time      0.2175
    MIXING:  cpu time      0.0349: real time      0.0349
    --------------------------------------------
      LOOP:  cpu time      2.9878: real time      2.9904

 eigenvalue-minimisations  :    50
 total energy-change (2. order) :-0.3374074E-03  (-0.3363486E-04)
 number of electron      11.9999995 magnetization       1.9999997
 augmentation part        1.2009714 magnetization       0.4943637

 Broyden mixing:
  rms(total) = 0.17950E-02    rms(broyden)= 0.17939E-02
  rms(prec ) = 0.20222E-02
  weight for this iteration     100.00

 eigenvalues of (default mixing * dielectric matrix)
  average eigenvalue GAMMA=   1.3477
  2.4054  2.4054  1.6402  0.9323  0.7077  0.7077  0.6349

 Free energy of the ion-electron system (eV)
  ---------------------------------------------------
  alpha Z        PSCENC =         0.05874137
  Ewald energy   TEWEN  =       311.48458658
  -Hartree energ DENC   =     -1040.37010813
  -exchange      EXHF   =         0.00000000
  -V(xc)+E(xc)   XCENC  =        56.02211182
  PAW double counting   =       945.54979373     -949.26638850
  entropy T*S    EENTRO =        -0.00000000
  eigenvalues    EBANDS =      -197.77687932
  atomic energy  EATOM  =       864.71597305
  Solvation  Ediel_sol  =         0.00000000
  ---------------------------------------------------
  free energy    TOTEN  =        -9.58216940 eV

  energy without entropy =       -9.58216940  energy(sigma->0) =       -9.58216940


--------------------------------------------------------------------------------------------------------




--------------------------------------- Iteration      1(  13)  ---------------------------------------


    POTLOK:  cpu time      1.5593: real time      1.5650
    SETDIJ:  cpu time      0.1316: real time      0.1317
    EDDIAG:  cpu time      0.2132: real time      0.2134
  RMM-DIIS:  cpu time      0.8270: real time      0.8277
    ORTHCH:  cpu time      0.0045: real time      0.0045
       DOS:  cpu time      0.0001: real time      0.0001
    CHARGE:  cpu time      0.2078: real time      0.2080
    MIXING:  cpu time      0.0460: real time      0.0460
    --------------------------------------------
      LOOP:  cpu time      2.9896: real time      2.9965

 eigenvalue-minimisations  :    50
 total energy-change (2. order) :-0.2668369E-03  (-0.7002059E-05)
 number of electron      11.9999995 magnetization       1.9999997
 augmentation part        1.2008560 magnetization       0.4942987

 Broyden mixing:
  rms(total) = 0.75290E-03    rms(broyden)= 0.75231E-03
  rms(prec ) = 0.10133E-02
  weight for this iteration     100.00

 eigenvalues of (default mixing * dielectric matrix)
  average eigenvalue GAMMA=   1.2723
  2.4356  2.4356  1.5309  1.0029  0.7288  0.7288  0.6499  0.6656

 Free energy of the ion-electron system (eV)
  ---------------------------------------------------
  alpha Z        PSCENC =         0.05874137
  Ewald energy   TEWEN  =       311.48458658
  -Hartree energ DENC   =     -1040.41990585
  -exchange      EXHF   =         0.00000000
  -V(xc)+E(xc)   XCENC  =        56.02240327
  PAW double counting   =       945.82555602     -949.54011363
  entropy T*S    EENTRO =        -0.00000000
  eigenvalues    EBANDS =      -197.72967704
  atomic energy  EATOM  =       864.71597305
  Solvation  Ediel_sol  =         0.00000000
  ---------------------------------------------------
  free energy    TOTEN  =        -9.58243624 eV

  energy without entropy =       -9.58243624  energy(sigma->0) =       -9.58243624


--------------------------------------------------------------------------------------------------------




--------------------------------------- Iteration      1(  14)  ---------------------------------------


    POTLOK:  cpu time      1.5623: real time      1.5637
    SETDIJ:  cpu time      0.1315: real time      0.1316
    EDDIAG:  cpu time      0.2147: real time      0.2149
  RMM-DIIS:  cpu time      0.7890: real time      0.7897
    ORTHCH:  cpu time      0.0041: real time      0.0042
       DOS:  cpu time      0.0001: real time      0.0001
    CHARGE:  cpu time      0.2184: real time      0.2185
    MIXING:  cpu time      0.0374: real time      0.0375
    --------------------------------------------
      LOOP:  cpu time      2.9576: real time      2.9602

 eigenvalue-minimisations  :    47
 total energy-change (2. order) :-0.8737577E-04  (-0.1744774E-05)
 number of electron      11.9999995 magnetization       1.9999997
 augmentation part        1.2008442 magnetization       0.4942989

 Broyden mixing:
  rms(total) = 0.45014E-03    rms(broyden)= 0.44996E-03
  rms(prec ) = 0.73471E-03
  weight for this iteration     100.00

 eigenvalues of (default mixing * dielectric matrix)
  average eigenvalue GAMMA=   1.2512
  2.4773  2.4773  1.5138  1.0256  1.0256  0.7192  0.7192  0.6787  0.6245

 Free energy of the ion-electron system (eV)
  ---------------------------------------------------
  alpha Z        PSCENC =         0.05874137
  Ewald energy   TEWEN  =       311.48458658
  -Hartree energ DENC   =     -1040.41751738
  -exchange      EXHF   =         0.00000000
  -V(xc)+E(xc)   XCENC  =        56.02150404
  PAW double counting   =       945.81467284     -949.52827220
  entropy T*S    EENTRO =        -0.00000000
  eigenvalues    EBANDS =      -197.73221191
  atomic energy  EATOM  =       864.71597305
  Solvation  Ediel_sol  =         0.00000000
  ---------------------------------------------------
  free energy    TOTEN  =        -9.58252361 eV

  energy without entropy =       -9.58252361  energy(sigma->0) =       -9.58252361


--------------------------------------------------------------------------------------------------------




--------------------------------------- Iteration      1(  15)  ---------------------------------------


    POTLOK:  cpu time      1.5577: real time      1.5590
    SETDIJ:  cpu time      0.1333: real time      0.1334
    EDDIAG:  cpu time      0.2135: real time      0.2137
  RMM-DIIS:  cpu time      0.7620: real time      0.7627
    ORTHCH:  cpu time      0.0041: real time      0.0041
       DOS:  cpu time      0.0001: real time      0.0001
    CHARGE:  cpu time      0.2183: real time      0.2186
    MIXING:  cpu time      0.0410: real time      0.0410
    --------------------------------------------
      LOOP:  cpu time      2.9300: real time      2.9325

 eigenvalue-minimisations  :    46
 total energy-change (2. order) :-0.1350704E-03  (-0.8406485E-06)
 number of electron      11.9999995 magnetization       1.9999996
 augmentation part        1.2008477 magnetization       0.4943069

 Broyden mixing:
  rms(total) = 0.30801E-03    rms(broyden)= 0.30788E-03
  rms(prec ) = 0.54786E-03
  weight for this iteration     100.00

 eigenvalues of (default mixing * dielectric matrix)
  average eigenvalue GAMMA=   1.3242
  2.5996  2.5996  1.7361  1.7361  0.8904  0.8904  0.7607  0.7106  0.6920  0.6264

 Free energy of the ion-electron system (eV)
  ---------------------------------------------------
  alpha Z        PSCENC =         0.05874137
  Ewald energy   TEWEN  =       311.48458658
  -Hartree energ DENC   =     -1040.43486995
  -exchange      EXHF   =         0.00000000
  -V(xc)+E(xc)   XCENC  =        56.02136797
  PAW double counting   =       945.73514270     -949.44793537
  entropy T*S    EENTRO =        -0.00000000
  eigenvalues    EBANDS =      -197.71566504
  atomic energy  EATOM  =       864.71597305
  Solvation  Ediel_sol  =         0.00000000
  ---------------------------------------------------
  free energy    TOTEN  =        -9.58265869 eV

  energy without entropy =       -9.58265869  energy(sigma->0) =       -9.58265869


--------------------------------------------------------------------------------------------------------




--------------------------------------- Iteration      1(  16)  ---------------------------------------


    POTLOK:  cpu time      1.5636: real time      1.5650
    SETDIJ:  cpu time      0.1311: real time      0.1311
    EDDIAG:  cpu time      0.2148: real time      0.2150
  RMM-DIIS:  cpu time      0.7654: real time      0.7661
    ORTHCH:  cpu time      0.0041: real time      0.0041
       DOS:  cpu time      0.0001: real time      0.0001
    CHARGE:  cpu time      0.2175: real time      0.2177
    MIXING:  cpu time      0.0418: real time      0.0418
    --------------------------------------------
      LOOP:  cpu time      2.9383: real time      2.9409

 eigenvalue-minimisations  :    46
 total energy-change (2. order) :-0.1848380E-03  (-0.1479846E-05)
 number of electron      11.9999995 magnetization       1.9999996
 augmentation part        1.2008606 magnetization       0.4943160

 Broyden mixing:
  rms(total) = 0.32564E-03    rms(broyden)= 0.32559E-03
  rms(prec ) = 0.42662E-03
  weight for this iteration     100.00

 eigenvalues of (default mixing * dielectric matrix)
  average eigenvalue GAMMA=   1.3452
  3.1796  2.5537  2.1764  1.4866  1.0601  0.8269  0.8269  0.7037  0.7037  0.6199
  0.6592

 Free energy of the ion-electron system (eV)
  ---------------------------------------------------
  alpha Z        PSCENC =         0.05874137
  Ewald energy   TEWEN  =       311.48458658
  -Hartree energ DENC   =     -1040.46573609
  -exchange      EXHF   =         0.00000000
  -V(xc)+E(xc)   XCENC  =        56.02125029
  PAW double counting   =       945.65783792     -949.36959754
  entropy T*S    EENTRO =        -0.00000000
  eigenvalues    EBANDS =      -197.68589909
  atomic energy  EATOM  =       864.71597305
  Solvation  Ediel_sol  =         0.00000000
  ---------------------------------------------------
  free energy    TOTEN  =        -9.58284352 eV

  energy without entropy =       -9.58284352  energy(sigma->0) =       -9.58284352


--------------------------------------------------------------------------------------------------------




--------------------------------------- Iteration      1(  17)  ---------------------------------------


    POTLOK:  cpu time      1.5657: real time      1.5670
    SETDIJ:  cpu time      0.1313: real time      0.1314
    EDDIAG:  cpu time      0.2138: real time      0.2140
  RMM-DIIS:  cpu time      0.7290: real time      0.7296
    ORTHCH:  cpu time      0.0041: real time      0.0041
       DOS:  cpu time      0.0001: real time      0.0001
    CHARGE:  cpu time      0.2179: real time      0.2182
    MIXING:  cpu time      0.0435: real time      0.0436
    --------------------------------------------
      LOOP:  cpu time      2.9054: real time      2.9079

 eigenvalue-minimisations  :    43
 total energy-change (2. order) :-0.5969364E-04  (-0.7212593E-06)
 number of electron      11.9999995 magnetization       1.9999996
 augmentation part        1.2008176 magnetization       0.4942988

 Broyden mixing:
  rms(total) = 0.13527E-03    rms(broyden)= 0.13520E-03
  rms(prec ) = 0.24369E-03
  weight for this iteration     100.00

 eigenvalues of (default mixing * dielectric matrix)
  average eigenvalue GAMMA=   1.3683
  3.6368  2.5459  2.1583  1.4827  1.0788  1.0788  0.8713  0.8713  0.7122  0.7122
  0.6204  0.6510

 Free energy of the ion-electron system (eV)
  ---------------------------------------------------
  alpha Z        PSCENC =         0.05874137
  Ewald energy   TEWEN  =       311.48458658
  -Hartree energ DENC   =     -1040.48951024
  -exchange      EXHF   =         0.00000000
  -V(xc)+E(xc)   XCENC  =        56.02204187
  PAW double counting   =       945.64751167     -949.35948155
  entropy T*S    EENTRO =        -0.00000000
  eigenvalues    EBANDS =      -197.66276596
  atomic energy  EATOM  =       864.71597305
  Solvation  Ediel_sol  =         0.00000000
  ---------------------------------------------------
  free energy    TOTEN  =        -9.58290322 eV

  energy without entropy =       -9.58290322  energy(sigma->0) =       -9.58290322


--------------------------------------------------------------------------------------------------------




--------------------------------------- Iteration      1(  18)  ---------------------------------------


    POTLOK:  cpu time      1.5608: real time      1.5622
    SETDIJ:  cpu time      0.1310: real time      0.1310
    EDDIAG:  cpu time      0.2128: real time      0.2130
  RMM-DIIS:  cpu time      0.7522: real time      0.7528
    ORTHCH:  cpu time      0.0042: real time      0.0042
       DOS:  cpu time      0.0001: real time      0.0001
    CHARGE:  cpu time      0.2164: real time      0.2166
    MIXING:  cpu time      0.0460: real time      0.0461
    --------------------------------------------
      LOOP:  cpu time      2.9235: real time      2.9260

 eigenvalue-minimisations  :    44
 total energy-change (2. order) :-0.8100977E-04  (-0.7972630E-06)
 number of electron      11.9999995 magnetization       1.9999996
 augmentation part        1.2007894 magnetization       0.4942847

 Broyden mixing:
  rms(total) = 0.14070E-03    rms(broyden)= 0.14064E-03
  rms(prec ) = 0.17927E-03
  weight for this iteration     100.00

 eigenvalues of (default mixing * dielectric matrix)
  average eigenvalue GAMMA=   1.4661
  4.4758  2.4448  2.4150  2.0959  1.4186  1.1063  0.8287  0.8287  0.7233  0.7233
  0.7253  0.6232  0.6505

 Free energy of the ion-electron system (eV)
  ---------------------------------------------------
  alpha Z        PSCENC =         0.05874137
  Ewald energy   TEWEN  =       311.48458658
  -Hartree energ DENC   =     -1040.51579558
  -exchange      EXHF   =         0.00000000
  -V(xc)+E(xc)   XCENC  =        56.02244234
  PAW double counting   =       945.64244370     -949.35466883
  entropy T*S    EENTRO =        -0.00000000
  eigenvalues    EBANDS =      -197.63670685
  atomic energy  EATOM  =       864.71597305
  Solvation  Ediel_sol  =         0.00000000
  ---------------------------------------------------
  free energy    TOTEN  =        -9.58298423 eV

  energy without entropy =       -9.58298423  energy(sigma->0) =       -9.58298423


--------------------------------------------------------------------------------------------------------




--------------------------------------- Iteration      1(  19)  ---------------------------------------


    POTLOK:  cpu time      1.5615: real time      1.5628
    SETDIJ:  cpu time      0.1320: real time      0.1321
    EDDIAG:  cpu time      0.2134: real time      0.2136
  RMM-DIIS:  cpu time      0.6899: real time      0.6906
    ORTHCH:  cpu time      0.0041: real time      0.0041
       DOS:  cpu time      0.0001: real time      0.0001
    CHARGE:  cpu time      0.2178: real time      0.2180
    MIXING:  cpu time      0.0482: real time      0.0482
    --------------------------------------------
      LOOP:  cpu time      2.8671: real time      2.8694

 eigenvalue-minimisations  :    39
 total energy-change (2. order) :-0.4815788E-04  (-0.2490296E-06)
 number of electron      11.9999995 magnetization       1.9999996
 augmentation part        1.2007871 magnetization       0.4942866

 Broyden mixing:
  rms(total) = 0.75052E-04    rms(broyden)= 0.75047E-04
  rms(prec ) = 0.10140E-03
  weight for this iteration     100.00

 eigenvalues of (default mixing * dielectric matrix)
  average eigenvalue GAMMA=   1.5821
  6.1469  2.8436  2.5302  2.1414  1.4124  0.9687  0.9687  0.8476  0.8476  0.7765
  0.6961  0.6961  0.6236  0.6498

 Free energy of the ion-electron system (eV)
  ---------------------------------------------------
  alpha Z        PSCENC =         0.05874137
  Ewald energy   TEWEN  =       311.48458658
  -Hartree energ DENC   =     -1040.52119768
  -exchange      EXHF   =         0.00000000
  -V(xc)+E(xc)   XCENC  =        56.02230095
  PAW double counting   =       945.65576223     -949.36817523
  entropy T*S    EENTRO =        -0.00000000
  eigenvalues    EBANDS =      -197.63102366
  atomic energy  EATOM  =       864.71597305
  Solvation  Ediel_sol  =         0.00000000
  ---------------------------------------------------
  free energy    TOTEN  =        -9.58303238 eV

  energy without entropy =       -9.58303238  energy(sigma->0) =       -9.58303238


--------------------------------------------------------------------------------------------------------




--------------------------------------- Iteration      1(  20)  ---------------------------------------


    POTLOK:  cpu time      1.5593: real time      1.5609
    SETDIJ:  cpu time      0.1327: real time      0.1328
    EDDIAG:  cpu time      0.2143: real time      0.2145
  RMM-DIIS:  cpu time      0.6398: real time      0.6404
    ORTHCH:  cpu time      0.0042: real time      0.0042
       DOS:  cpu time      0.0001: real time      0.0001
    CHARGE:  cpu time      0.2168: real time      0.2170
    MIXING:  cpu time      0.0525: real time      0.0525
    --------------------------------------------
      LOOP:  cpu time      2.8197: real time      2.8223

 eigenvalue-minimisations  :    36
 total energy-change (2. order) :-0.1849028E-04  (-0.8350107E-07)
 number of electron      11.9999995 magnetization       1.9999996
 augmentation part        1.2007911 magnetization       0.4942896

 Broyden mixing:
  rms(total) = 0.39850E-04    rms(broyden)= 0.39840E-04
  rms(prec ) = 0.63480E-04
  weight for this iteration     100.00

 eigenvalues of (default mixing * dielectric matrix)
  average eigenvalue GAMMA=   1.5834
  6.6441  2.8738  2.4888  2.1808  1.2927  1.2927  1.0945  0.8367  0.8367  0.8031
  0.7381  0.7381  0.6235  0.6538  0.6538

 Free energy of the ion-electron system (eV)
  ---------------------------------------------------
  alpha Z        PSCENC =         0.05874137
  Ewald energy   TEWEN  =       311.48458658
  -Hartree energ DENC   =     -1040.51941690
  -exchange      EXHF   =         0.00000000
  -V(xc)+E(xc)   XCENC  =        56.02209932
  PAW double counting   =       945.65146925     -949.36387937
  entropy T*S    EENTRO =        -0.00000000
  eigenvalues    EBANDS =      -197.63262417
  atomic energy  EATOM  =       864.71597305
  Solvation  Ediel_sol  =         0.00000000
  ---------------------------------------------------
  free energy    TOTEN  =        -9.58305087 eV

  energy without entropy =       -9.58305087  energy(sigma->0) =       -9.58305087


--------------------------------------------------------------------------------------------------------




--------------------------------------- Iteration      1(  21)  ---------------------------------------


    POTLOK:  cpu time      1.5635: real time      1.5650
    SETDIJ:  cpu time      0.1304: real time      0.1304
    EDDIAG:  cpu time      0.2139: real time      0.2141
  RMM-DIIS:  cpu time      0.6668: real time      0.6674
    ORTHCH:  cpu time      0.0041: real time      0.0041
       DOS:  cpu time      0.0001: real time      0.0001
    CHARGE:  cpu time      0.2186: real time      0.2188
    MIXING:  cpu time      0.0544: real time      0.0544
    --------------------------------------------
      LOOP:  cpu time      2.8518: real time      2.8544

 eigenvalue-minimisations  :    38
 total energy-change (2. order) :-0.1974982E-04  (-0.9628508E-07)
 number of electron      11.9999995 magnetization       1.9999996
 augmentation part        1.2007975 magnetization       0.4942936

 Broyden mixing:
  rms(total) = 0.46209E-04    rms(broyden)= 0.46183E-04
  rms(prec ) = 0.56625E-04
  weight for this iteration     100.00

 eigenvalues of (default mixing * dielectric matrix)
  average eigenvalue GAMMA=   1.7153
  7.2937  3.2981  2.8055  2.6410  2.0761  1.2341  1.2341  0.8368  0.8368  0.9810
  0.8424  0.7239  0.7239  0.6268  0.6529  0.6382

 Free energy of the ion-electron system (eV)
  ---------------------------------------------------
  alpha Z        PSCENC =         0.05874137
  Ewald energy   TEWEN  =       311.48458658
  -Hartree energ DENC   =     -1040.51604981
  -exchange      EXHF   =         0.00000000
  -V(xc)+E(xc)   XCENC  =        56.02186522
  PAW double counting   =       945.64371423     -949.35600047
  entropy T*S    EENTRO =        -0.00000000
  eigenvalues    EBANDS =      -197.63590079
  atomic energy  EATOM  =       864.71597305
  Solvation  Ediel_sol  =         0.00000000
  ---------------------------------------------------
  free energy    TOTEN  =        -9.58307062 eV

  energy without entropy =       -9.58307062  energy(sigma->0) =       -9.58307062


--------------------------------------------------------------------------------------------------------




--------------------------------------- Iteration      1(  22)  ---------------------------------------


    POTLOK:  cpu time      1.5619: real time      1.5633
    SETDIJ:  cpu time      0.1329: real time      0.1330
    EDDIAG:  cpu time      0.2133: real time      0.2135
  RMM-DIIS:  cpu time      0.6397: real time      0.6402
    ORTHCH:  cpu time      0.0041: real time      0.0041
       DOS:  cpu time      0.0001: real time      0.0001
    CHARGE:  cpu time      0.2021: real time      0.2023
    MIXING:  cpu time      0.0734: real time      0.0734
    --------------------------------------------
      LOOP:  cpu time      2.8275: real time      2.8299

 eigenvalue-minimisations  :    35
 total energy-change (2. order) :-0.1736944E-04  (-0.1008101E-06)
 number of electron      11.9999995 magnetization       1.9999996
 augmentation part        1.2007937 magnetization       0.4942921

 Broyden mixing:
  rms(total) = 0.15233E-04    rms(broyden)= 0.15228E-04
  rms(prec ) = 0.20029E-04
  weight for this iteration     100.00

 eigenvalues of (default mixing * dielectric matrix)
  average eigenvalue GAMMA=   1.7647
  7.8744  4.4776  2.7920  2.5539  2.1161  1.2967  1.2967  1.0182  0.8336  0.8336
  0.8362  0.7322  0.7322  0.7073  0.6257  0.6366  0.6366

 Free energy of the ion-electron system (eV)
  ---------------------------------------------------
  alpha Z        PSCENC =         0.05874137
  Ewald energy   TEWEN  =       311.48458658
  -Hartree energ DENC   =     -1040.51655469
  -exchange      EXHF   =         0.00000000
  -V(xc)+E(xc)   XCENC  =        56.02185677
  PAW double counting   =       945.64487244     -949.35715756
  entropy T*S    EENTRO =        -0.00000000
  eigenvalues    EBANDS =      -197.63540595
  atomic energy  EATOM  =       864.71597305
  Solvation  Ediel_sol  =         0.00000000
  ---------------------------------------------------
  free energy    TOTEN  =        -9.58308799 eV

  energy without entropy =       -9.58308799  energy(sigma->0) =       -9.58308799


--------------------------------------------------------------------------------------------------------




--------------------------------------- Iteration      1(  23)  ---------------------------------------


    POTLOK:  cpu time      1.5631: real time      1.5645
    SETDIJ:  cpu time      0.1304: real time      0.1305
    EDDIAG:  cpu time      0.2149: real time      0.2151
  RMM-DIIS:  cpu time      0.5809: real time      0.5814
    ORTHCH:  cpu time      0.0042: real time      0.0042
       DOS:  cpu time      0.0001: real time      0.0001
    CHARGE:  cpu time      0.2189: real time      0.2191
    MIXING:  cpu time      0.0622: real time      0.0622
    --------------------------------------------
      LOOP:  cpu time      2.7747: real time      2.7770

 eigenvalue-minimisations  :    30
 total energy-change (2. order) :-0.1784772E-05  (-0.1732131E-07)
 number of electron      11.9999995 magnetization       1.9999996
 augmentation part        1.2007924 magnetization       0.4942915

 Broyden mixing:
  rms(total) = 0.75956E-05    rms(broyden)= 0.75914E-05
  rms(prec ) = 0.12907E-04
  weight for this iteration     100.00

 eigenvalues of (default mixing * dielectric matrix)
  average eigenvalue GAMMA=   1.7620
  8.0816  4.7557  2.7298  2.5536  2.1569  1.3725  1.3725  1.1744  0.8342  0.8342
  0.9729  0.8639  0.7297  0.7297  0.6705  0.6274  0.6274  0.6294

 Free energy of the ion-electron system (eV)
  ---------------------------------------------------
  alpha Z        PSCENC =         0.05874137
  Ewald energy   TEWEN  =       311.48458658
  -Hartree energ DENC   =     -1040.51707081
  -exchange      EXHF   =         0.00000000
  -V(xc)+E(xc)   XCENC  =        56.02188095
  PAW double counting   =       945.64690785     -949.35921363
  entropy T*S    EENTRO =        -0.00000000
  eigenvalues    EBANDS =      -197.63489514
  atomic energy  EATOM  =       864.71597305
  Solvation  Ediel_sol  =         0.00000000
  ---------------------------------------------------
  free energy    TOTEN  =        -9.58308978 eV

  energy without entropy =       -9.58308978  energy(sigma->0) =       -9.58308978


--------------------------------------------------------------------------------------------------------




--------------------------------------- Iteration      1(  24)  ---------------------------------------


    POTLOK:  cpu time      1.5617: real time      1.5687
    SETDIJ:  cpu time      0.1314: real time      0.1315
    EDDIAG:  cpu time      0.2135: real time      0.2137
  RMM-DIIS:  cpu time      0.5667: real time      0.5672
    ORTHCH:  cpu time      0.0041: real time      0.0042
       DOS:  cpu time      0.0001: real time      0.0001
    CHARGE:  cpu time      0.2172: real time      0.2174
    MIXING:  cpu time      0.0663: real time      0.0663
    --------------------------------------------
      LOOP:  cpu time      2.7610: real time      2.7690

 eigenvalue-minimisations  :    28
 total energy-change (2. order) :-0.3048112E-05  (-0.1035945E-07)
 number of electron      11.9999995 magnetization       1.9999996
 augmentation part        1.2007913 magnetization       0.4942912

 Broyden mixing:
  rms(total) = 0.69471E-05    rms(broyden)= 0.69442E-05
  rms(prec ) = 0.92090E-05
  weight for this iteration     100.00

 eigenvalues of (default mixing * dielectric matrix)
  average eigenvalue GAMMA=   1.8390
  8.4994  5.2911  2.8043  2.8043  2.5105  2.0857  1.3088  1.3088  0.8328  0.8328
  0.9345  0.9345  0.8041  0.7227  0.7227  0.6495  0.6495  0.6226  0.6226

 Free energy of the ion-electron system (eV)
  ---------------------------------------------------
  alpha Z        PSCENC =         0.05874137
  Ewald energy   TEWEN  =       311.48458658
  -Hartree energ DENC   =     -1040.51735255
  -exchange      EXHF   =         0.00000000
  -V(xc)+E(xc)   XCENC  =        56.02188968
  PAW double counting   =       945.64720654     -949.35951781
  entropy T*S    EENTRO =        -0.00000000
  eigenvalues    EBANDS =      -197.63461969
  atomic energy  EATOM  =       864.71597305
  Solvation  Ediel_sol  =         0.00000000
  ---------------------------------------------------
  free energy    TOTEN  =        -9.58309283 eV

  energy without entropy =       -9.58309283  energy(sigma->0) =       -9.58309283


--------------------------------------------------------------------------------------------------------




--------------------------------------- Iteration      1(  25)  ---------------------------------------


    POTLOK:  cpu time      1.5621: real time      1.5634
    SETDIJ:  cpu time      0.1317: real time      0.1318
    EDDIAG:  cpu time      0.2120: real time      0.2122
  RMM-DIIS:  cpu time      0.5430: real time      0.5435
    ORTHCH:  cpu time      0.0042: real time      0.0042
       DOS:  cpu time      0.0001: real time      0.0001
    CHARGE:  cpu time      0.2190: real time      0.2192
    MIXING:  cpu time      0.0724: real time      0.0724
    --------------------------------------------
      LOOP:  cpu time      2.7445: real time      2.7469

 eigenvalue-minimisations  :    26
 total energy-change (2. order) :-0.1239742E-05  (-0.6254786E-08)
 number of electron      11.9999995 magnetization       1.9999996
 augmentation part        1.2007909 magnetization       0.4942909

 Broyden mixing:
  rms(total) = 0.41050E-05    rms(broyden)= 0.41042E-05
  rms(prec ) = 0.54662E-05
  weight for this iteration     100.00

 eigenvalues of (default mixing * dielectric matrix)
  average eigenvalue GAMMA=   1.8363
  8.6877  5.5083  3.0970  2.7862  2.5018  2.1356  1.3609  1.3609  0.8334  0.8334
  0.9882  0.9882  0.8398  0.8398  0.7135  0.7135  0.6460  0.6460  0.6228  0.6228

 Free energy of the ion-electron system (eV)
  ---------------------------------------------------
  alpha Z        PSCENC =         0.05874137
  Ewald energy   TEWEN  =       311.48458658
  -Hartree energ DENC   =     -1040.51729246
  -exchange      EXHF   =         0.00000000
  -V(xc)+E(xc)   XCENC  =        56.02187778
  PAW double counting   =       945.64594012     -949.35823629
  entropy T*S    EENTRO =        -0.00000000
  eigenvalues    EBANDS =      -197.63468420
  atomic energy  EATOM  =       864.71597305
  Solvation  Ediel_sol  =         0.00000000
  ---------------------------------------------------
  free energy    TOTEN  =        -9.58309407 eV

  energy without entropy =       -9.58309407  energy(sigma->0) =       -9.58309407


--------------------------------------------------------------------------------------------------------




--------------------------------------- Iteration      1(  26)  ---------------------------------------


    POTLOK:  cpu time      1.5664: real time      1.5678
    SETDIJ:  cpu time      0.1310: real time      0.1311
    EDDIAG:  cpu time      0.2131: real time      0.2133
  RMM-DIIS:  cpu time      0.5513: real time      0.5517
    ORTHCH:  cpu time      0.0041: real time      0.0041
       DOS:  cpu time      0.0001: real time      0.0001
    --------------------------------------------
      LOOP:  cpu time      2.4660: real time      2.4681

 eigenvalue-minimisations  :    27
 total energy-change (2. order) :-0.5909222E-06  (-0.4015801E-08)
 number of electron      11.9999995 magnetization       1.9999996
 augmentation part        1.2007909 magnetization       0.4942909

 Free energy of the ion-electron system (eV)
  ---------------------------------------------------
  alpha Z        PSCENC =         0.05874137
  Ewald energy   TEWEN  =       311.48458658
  -Hartree energ DENC   =     -1040.51712074
  -exchange      EXHF   =         0.00000000
  -V(xc)+E(xc)   XCENC  =        56.02186060
  PAW double counting   =       945.64556538     -949.35785641
  entropy T*S    EENTRO =        -0.00000000
  eigenvalues    EBANDS =      -197.63484449
  atomic energy  EATOM  =       864.71597305
  Solvation  Ediel_sol  =         0.00000000
  ---------------------------------------------------
  free energy    TOTEN  =        -9.58309466 eV

  energy without entropy =       -9.58309466  energy(sigma->0) =       -9.58309466


--------------------------------------------------------------------------------------------------------




 average (electrostatic) potential at core
  the test charge radii are     0.7215
  (the norm of the test charge is              1.0000)
       1 -83.9884       2 -83.9884
 
 
 
 E-fermi : -12.1788     XC(G=0):  -0.0750     alpha+bet : -0.0158

 Fermi energy:        -6.1957551722

 spin component 1

 k-point     1 :       0.0000    0.0000    0.0000
  band No.  band energies     occupation 
      1     -34.4068      1.00000
      2     -20.0030      1.00000
      3     -14.1216      1.00000
      4     -14.1216      1.00000
      5     -13.6374      1.00000
      6      -6.3271      1.00000
      7      -6.3271      1.00000
      8      -0.1996      0.00000
      9       0.0875      0.00000
     10       0.2684      0.00000
     11       0.2911      0.00000
     12       0.2913      0.00000
 Fermi energy:       -12.1787858750

 spin component 2

 k-point     1 :       0.0000    0.0000    0.0000
  band No.  band energies     occupation 
      1     -33.2562      1.00000
      2     -18.2185      1.00000
      3     -12.6851      1.00000
      4     -12.2652      1.00000
      5     -12.2652      1.00000
      6      -4.0102      0.00000
      7      -4.0102      0.00000
      8      -0.0864      0.00000
      9       0.1408      0.00000
     10       0.3084      0.00000
     11       0.3108      0.00000
     12       0.3109      0.00000


--------------------------------------------------------------------------------------------------------


 soft charge-density along one line, spin component           1
         0         1         2         3         4         5         6         7         8         9
 total charge-density along one line
 
 soft charge-density along one line, spin component           2
         0         1         2         3         4         5         6         7         8         9
 total charge-density along one line
 
 pseudopotential strength for first ion, spin component:           1
 14.589 -17.940   0.000   0.000   0.144  -0.000  -0.000  -0.176
-17.940  22.096  -0.000  -0.000  -0.182   0.000   0.000   0.223
  0.000  -0.000 -11.439   0.000   0.000  14.338  -0.000  -0.000
  0.000  -0.000   0.000 -11.439  -0.000  -0.000  14.338   0.000
  0.144  -0.182   0.000  -0.000 -11.438  -0.000   0.000  14.313
 -0.000   0.000  14.338  -0.000  -0.000 -17.931   0.000   0.000
 -0.000   0.000  -0.000  14.338   0.000   0.000 -17.931  -0.000
 -0.176   0.223  -0.000   0.000  14.313   0.000  -0.000 -17.864
 pseudopotential strength for first ion, spin component:           2
 14.058 -17.255   0.000   0.000   0.152  -0.000  -0.000  -0.190
-17.255  21.211  -0.000  -0.000  -0.193   0.000   0.000   0.241
  0.000  -0.000 -10.807  -0.000   0.000  13.446   0.000  -0.000
  0.000  -0.000  -0.000 -10.807   0.000   0.000  13.446  -0.000
  0.152  -0.193   0.000   0.000 -11.268  -0.000  -0.000  14.082
 -0.000   0.000  13.446   0.000  -0.000 -16.668  -0.000   0.000
 -0.000   0.000   0.000  13.446  -0.000  -0.000 -16.668   0.000
 -0.190   0.241  -0.000  -0.000  14.082   0.000   0.000 -17.548
 total augmentation occupancy for first ion, spin component:           1
  2.691   0.462  -0.000  -0.000  -0.767  -0.000  -0.000  -0.359
  0.462   0.243  -0.000   0.000  -0.692  -0.000  -0.000  -0.221
 -0.000  -0.000   1.761   0.000  -0.000   0.115  -0.000  -0.000
 -0.000   0.000   0.000   1.761  -0.000  -0.000   0.115  -0.000
 -0.767  -0.692  -0.000  -0.000   2.774  -0.000  -0.000   0.667
 -0.000  -0.000   0.115  -0.000  -0.000   0.045   0.000   0.000
 -0.000  -0.000  -0.000   0.115  -0.000   0.000   0.045   0.000
 -0.359  -0.221  -0.000  -0.000   0.667   0.000   0.000   0.204
 total augmentation occupancy for first ion, spin component:           2
 -0.106  -0.060   0.000   0.000   0.019  -0.000  -0.000   0.016
 -0.060  -0.010   0.000   0.000   0.009  -0.000  -0.000   0.006
  0.000   0.000   0.287   0.000   0.000  -0.108   0.000  -0.000
  0.000   0.000   0.000   0.287   0.000   0.000  -0.108  -0.000
  0.019   0.009   0.000   0.000  -0.033  -0.000   0.000  -0.016
 -0.000  -0.000  -0.108   0.000  -0.000   0.011   0.000  -0.000
 -0.000  -0.000   0.000  -0.108   0.000   0.000   0.011   0.000
  0.016   0.006  -0.000  -0.000  -0.016  -0.000   0.000  -0.005


------------------------ aborting loop because EDIFF is reached ----------------------------------------





 total charge

# of ion       s       p       d       tot
------------------------------------------
    1        1.616   3.409   0.000   5.025
    2        1.616   3.409   0.000   5.025
--------------------------------------------------
tot          3.232   6.818   0.000  10.050



 magnetization (x)

# of ion       s       p       d       tot
------------------------------------------
    1        0.010   0.784   0.000   0.794
    2        0.010   0.784   0.000   0.794
--------------------------------------------------
tot          0.019   1.569   0.000   1.588
 
    CHARGE:  cpu time      0.2143: real time      0.2145
    FORLOC:  cpu time      0.0169: real time      0.0170
    FORNL :  cpu time      0.1057: real time      0.1064
    STRESS:  cpu time      0.4243: real time      0.4247
    FORCOR:  cpu time      1.4831: real time      1.4843
    FORHAR:  cpu time      0.1803: real time      0.1804
    MIXING:  cpu time      0.0753: real time      0.0754
    OFIELD:  cpu time      0.0000: real time      0.0000

 ---------------------------------------------------------------------------------------------

         DFTD3 V3.0 Rev 1        
 IVDW         = 11
 DF pbe       
 parameters
 VDW_S6       =    1.0000
 VDW_S8       =    0.7220
 VDW_SR       =    1.2170
 rs18     =    1.0000
 alpha6   =   14.0000
 alpha8   =   16.0000
 k1-k3    =   16.0000    1.3333   -4.0000
 VDW_RADIUS   =   50.2022 A
 VDW_CNRADIUS =   21.1671 A
 Edisp (eV)   -0.00001

 E6    (eV) :    -0.0000
 E8    (eV) :    -0.0000
 % E8        : 78.38
    FORVDW:  cpu time      0.0042: real time      0.0043

  FORCE on cell =-STRESS in cart. coord.  units (eV):
  Direction    XX          YY          ZZ          XY          YZ          ZX
  --------------------------------------------------------------------------------------
  Alpha Z     0.05874     0.05874     0.05874
  Ewald     404.35938   -46.43740   -46.43740    -0.00000     0.00000    -0.00000
  Hartree   476.42897   282.04408   282.04407    -0.00000     0.00000    -0.00000
  E(xc)     -58.56296   -59.79611   -59.79611     0.00000     0.00000     0.00000
  Local   -1010.74827  -419.18648  -419.18647     0.00000    -0.00000     0.00000
  n-local   -49.96935   -44.14997   -44.14999    -0.00000     0.00000    -0.00000
  augment    10.56786    13.45997    13.45997     0.00000     0.00000     0.00000
  Kinetic   237.12538   273.92906   273.92909     0.00000    -0.00000     0.00000
  Fock        0.00000     0.00000     0.00000     0.00000     0.00000     0.00000
  vdW         0.00007    -0.00000    -0.00000     0.00000     0.00000     0.00000
  -------------------------------------------------------------------------------------
  Total       9.25982    -0.07810    -0.07810    -0.00000    -0.00000    -0.00000
  in kB       1.56792    -0.01322    -0.01322    -0.00000    -0.00000    -0.00000
  external pressure =        0.51 kB  Pullay stress =        0.00 kB


 VOLUME and BASIS-vectors are now :
 -----------------------------------------------------------------------------
  energy-cutoff  :      520.00
  volume of cell :     9462.12
      direct lattice vectors                 reciprocal lattice vectors
    21.150930000  0.000000000  0.000000000     0.047279245  0.000000000  0.000000000
     0.000000000 21.150930000  0.000000000     0.000000000  0.047279245  0.000000000
     0.000000000  0.000000000 21.150930000     0.000000000  0.000000000  0.047279245

  length of vectors
    21.150930000 21.150930000 21.150930000     0.047279245  0.047279245  0.047279245


 FORCES acting on ions
    electron-ion (+dipol)            ewald-force                    non-local-force                 convergence-correction
 -----------------------------------------------------------------------------------------------
   -.324E+03 -.174E-05 -.349E-05   0.391E+03 -.771E-17 0.949E-18   -.594E+02 -.567E-06 0.111E-05   -.587E-04 0.212E-05 0.696E-05
   0.324E+03 -.222E-05 -.353E-05   -.391E+03 0.692E-18 0.109E-16   0.594E+02 0.250E-05 0.262E-05   0.990E-04 -.288E-06 0.611E-05
 -----------------------------------------------------------------------------------------------
   -.386E-04 -.396E-05 -.702E-05   0.000E+00 -.702E-17 0.118E-16   -.566E-05 0.193E-05 0.374E-05   0.403E-04 0.183E-05 0.131E-04
 
 
 POSITION                                       TOTAL-FORCE (eV/Angst)
 -----------------------------------------------------------------------------------
     11.15093     10.57546     10.57546         8.132751     -0.000000     -0.000000
     10.00000     10.57546     10.57546        -8.132751      0.000000      0.000000
 -----------------------------------------------------------------------------------
    total drift:                               -0.000004     -0.000000      0.000010


--------------------------------------------------------------------------------------------------------



  FREE ENERGIE OF THE ION-ELECTRON SYSTEM (eV)
  ---------------------------------------------------
  free  energy   TOTEN  =        -9.58310455 eV

  energy  without entropy=       -9.58310455  energy(sigma->0) =       -9.58310455
 


--------------------------------------------------------------------------------------------------------


    POTLOK:  cpu time      1.6921: real time      1.6935


--------------------------------------------------------------------------------------------------------


 stress matrix after NEB project (eV)
      9.25982     -0.00000     -0.00000
[...]
  eigenvalues    EBANDS =      -193.09337945
  atomic energy  EATOM  =       864.71597305
  Solvation  Ediel_sol  =         0.00000000
  ---------------------------------------------------
  free energy    TOTEN  =        -9.88462435 eV

  energy without entropy =       -9.88462435  energy(sigma->0) =       -9.88462435


--------------------------------------------------------------------------------------------------------




--------------------------------------- Iteration      8(   5)  ---------------------------------------


    POTLOK:  cpu time      1.5617: real time      1.5631
    SETDIJ:  cpu time      0.1306: real time      0.1307
    EDDIAG:  cpu time      0.2105: real time      0.2109
  RMM-DIIS:  cpu time      0.6191: real time      0.6197
    ORTHCH:  cpu time      0.0049: real time      0.0049
       DOS:  cpu time      0.0001: real time      0.0001
    CHARGE:  cpu time      0.2085: real time      0.2088
    MIXING:  cpu time      0.0408: real time      0.0409
    --------------------------------------------
      LOOP:  cpu time      2.7763: real time      2.7790

 eigenvalue-minimisations  :    34
 total energy-change (2. order) :-0.2342260E-05  (-0.8394398E-07)
 number of electron      11.9999996 magnetization       1.9999996
 augmentation part        1.1421261 magnetization       0.4965601

 Broyden mixing:
  rms(total) = 0.18516E-03    rms(broyden)= 0.18512E-03
  rms(prec ) = 0.18960E-03
  weight for this iteration     100.00

 eigenvalues of (default mixing * dielectric matrix)
  average eigenvalue GAMMA=   1.3200
  1.9296  1.9296  0.6435  0.7771

 Free energy of the ion-electron system (eV)
  ---------------------------------------------------
  alpha Z        PSCENC =         0.05874137
  Ewald energy   TEWEN  =       281.44076207
  -Hartree energ DENC   =     -1014.79765886
  -exchange      EXHF   =         0.00000000
  -V(xc)+E(xc)   XCENC  =        55.36109647
  PAW double counting   =       875.23372933     -878.79617046
  entropy T*S    EENTRO =        -0.00000000
  eigenvalues    EBANDS =      -193.10109966
  atomic energy  EATOM  =       864.71597305
  Solvation  Ediel_sol  =         0.00000000
  ---------------------------------------------------
  free energy    TOTEN  =        -9.88462670 eV

  energy without entropy =       -9.88462670  energy(sigma->0) =       -9.88462670


--------------------------------------------------------------------------------------------------------




--------------------------------------- Iteration      8(   6)  ---------------------------------------


    POTLOK:  cpu time      1.5635: real time      1.5650
    SETDIJ:  cpu time      0.1309: real time      0.1310
    EDDIAG:  cpu time      0.2145: real time      0.2148
  RMM-DIIS:  cpu time      0.6198: real time      0.6203
    ORTHCH:  cpu time      0.0042: real time      0.0042
       DOS:  cpu time      0.0001: real time      0.0001
    CHARGE:  cpu time      0.2120: real time      0.2122
    MIXING:  cpu time      0.0363: real time      0.0364
    --------------------------------------------
      LOOP:  cpu time      2.7813: real time      2.7839

 eigenvalue-minimisations  :    34
 total energy-change (2. order) :-0.1662698E-05  (-0.3042784E-07)
 number of electron      11.9999996 magnetization       1.9999996
 augmentation part        1.1421386 magnetization       0.4965605

 Broyden mixing:
  rms(total) = 0.87968E-04    rms(broyden)= 0.87958E-04
  rms(prec ) = 0.91524E-04
  weight for this iteration     100.00

 eigenvalues of (default mixing * dielectric matrix)
  average eigenvalue GAMMA=   1.2918
  2.5448  1.5956  0.9803  0.6918  0.6465

 Free energy of the ion-electron system (eV)
  ---------------------------------------------------
  alpha Z        PSCENC =         0.05874137
  Ewald energy   TEWEN  =       281.44076207
  -Hartree energ DENC   =     -1014.79079450
  -exchange      EXHF   =         0.00000000
  -V(xc)+E(xc)   XCENC  =        55.36070950
  PAW double counting   =       875.31872955     -878.88113214
  entropy T*S    EENTRO =        -0.00000000
  eigenvalues    EBANDS =      -193.10761727
  atomic energy  EATOM  =       864.71597305
  Solvation  Ediel_sol  =         0.00000000
  ---------------------------------------------------
  free energy    TOTEN  =        -9.88462836 eV

  energy without entropy =       -9.88462836  energy(sigma->0) =       -9.88462836


--------------------------------------------------------------------------------------------------------




--------------------------------------- Iteration      8(   7)  ---------------------------------------


    POTLOK:  cpu time      1.5650: real time      1.5665
    SETDIJ:  cpu time      0.1320: real time      0.1321
    EDDIAG:  cpu time      0.2119: real time      0.2121
  RMM-DIIS:  cpu time      0.5935: real time      0.5940
    ORTHCH:  cpu time      0.0042: real time      0.0043
       DOS:  cpu time      0.0001: real time      0.0001
    CHARGE:  cpu time      0.2055: real time      0.2057
    MIXING:  cpu time      0.0461: real time      0.0461
    --------------------------------------------
      LOOP:  cpu time      2.7584: real time      2.7609

 eigenvalue-minimisations  :    32
 total energy-change (2. order) :-0.1191068E-05  (-0.6790124E-08)
 number of electron      11.9999996 magnetization       1.9999996
 augmentation part        1.1421376 magnetization       0.4965591

 Broyden mixing:
  rms(total) = 0.40224E-04    rms(broyden)= 0.40222E-04
  rms(prec ) = 0.42527E-04
  weight for this iteration     100.00

 eigenvalues of (default mixing * dielectric matrix)
  average eigenvalue GAMMA=   1.2383
  2.5944  1.3154  1.3154  0.8842  0.6741  0.6464

 Free energy of the ion-electron system (eV)
  ---------------------------------------------------
  alpha Z        PSCENC =         0.05874137
  Ewald energy   TEWEN  =       281.44076207
  -Hartree energ DENC   =     -1014.79242151
  -exchange      EXHF   =         0.00000000
  -V(xc)+E(xc)   XCENC  =        55.36081129
  PAW double counting   =       875.34769991     -878.91016716
  entropy T*S    EENTRO =        -0.00000000
  eigenvalues    EBANDS =      -193.10602857
  atomic energy  EATOM  =       864.71597305
  Solvation  Ediel_sol  =         0.00000000
  ---------------------------------------------------
  free energy    TOTEN  =        -9.88462955 eV

  energy without entropy =       -9.88462955  energy(sigma->0) =       -9.88462955


--------------------------------------------------------------------------------------------------------




--------------------------------------- Iteration      8(   8)  ---------------------------------------


    POTLOK:  cpu time      1.5649: real time      1.5703
    SETDIJ:  cpu time      0.1327: real time      0.1328
    EDDIAG:  cpu time      0.2139: real time      0.2141
  RMM-DIIS:  cpu time      0.5989: real time      0.5994
    ORTHCH:  cpu time      0.0042: real time      0.0042
       DOS:  cpu time      0.0001: real time      0.0001
    --------------------------------------------
      LOOP:  cpu time      2.5146: real time      2.5209

 eigenvalue-minimisations  :    32
 total energy-change (2. order) :-0.3227682E-06  (-0.5248393E-08)
 number of electron      11.9999996 magnetization       1.9999996
 augmentation part        1.1421376 magnetization       0.4965591

 Free energy of the ion-electron system (eV)
  ---------------------------------------------------
  alpha Z        PSCENC =         0.05874137
  Ewald energy   TEWEN  =       281.44076207
  -Hartree energ DENC   =     -1014.79436524
  -exchange      EXHF   =         0.00000000
  -V(xc)+E(xc)   XCENC  =        55.36093262
  PAW double counting   =       875.34917637     -878.91169753
  entropy T*S    EENTRO =        -0.00000000
  eigenvalues    EBANDS =      -193.10415258
  atomic energy  EATOM  =       864.71597305
  Solvation  Ediel_sol  =         0.00000000
  ---------------------------------------------------
  free energy    TOTEN  =        -9.88462987 eV

  energy without entropy =       -9.88462987  energy(sigma->0) =       -9.88462987


--------------------------------------------------------------------------------------------------------




 average (electrostatic) potential at core
  the test charge radii are     0.7215
  (the norm of the test charge is              1.0000)
       1 -83.8477       2 -83.8477
 
 
 
 E-fermi : -11.3765     XC(G=0):  -0.0675     alpha+bet : -0.0158

 Fermi energy:        -6.9152334198

 spin component 1

 k-point     1 :       0.0000    0.0000    0.0000
  band No.  band energies     occupation 
      1     -32.5512      1.00000
      2     -20.6938      1.00000
      3     -13.4357      1.00000
      4     -13.3338      1.00000
      5     -13.3338      1.00000
      6      -7.0213      1.00000
      7      -7.0213      1.00000
      8      -0.1958      0.00000
      9       0.0964      0.00000
     10       0.2434      0.00000
     11       0.2971      0.00000
     12       0.3330      0.00000
 Fermi energy:       -11.3765251155

 spin component 2

 k-point     1 :       0.0000    0.0000    0.0000
  band No.  band energies     occupation 
      1     -31.3365      1.00000
      2     -18.8970      1.00000
      3     -12.5408      1.00000
      4     -11.4695      1.00000
      5     -11.4695      1.00000
      6      -4.7168      0.00000
      7      -4.7168      0.00000
      8      -0.1030      0.00000
      9       0.1421      0.00000
     10       0.3039      0.00000
     11       0.3149      0.00000
     12       0.3149      0.00000


--------------------------------------------------------------------------------------------------------


 soft charge-density along one line, spin component           1
         0         1         2         3         4         5         6         7         8         9
 total charge-density along one line
 
 soft charge-density along one line, spin component           2
         0         1         2         3         4         5         6         7         8         9
 total charge-density along one line
 
 pseudopotential strength for first ion, spin component:           1
 14.570 -17.917  -0.000  -0.000   0.106   0.000   0.000  -0.129
-17.917  22.067   0.000   0.000  -0.135  -0.000  -0.000   0.164
 -0.000   0.000 -11.443  -0.000   0.000  14.346   0.000  -0.000
 -0.000   0.000  -0.000 -11.443  -0.000   0.000  14.346   0.000
  0.106  -0.135   0.000  -0.000 -11.388  -0.000   0.000  14.249
  0.000  -0.000  14.346   0.000  -0.000 -17.946  -0.000   0.000
  0.000  -0.000   0.000  14.346   0.000  -0.000 -17.946  -0.000
 -0.129   0.164  -0.000   0.000  14.249   0.000  -0.000 -17.783
 pseudopotential strength for first ion, spin component:           2
 14.036 -17.228   0.000  -0.000   0.114  -0.000   0.000  -0.141
-17.228  21.178  -0.000   0.000  -0.145   0.000  -0.000   0.180
  0.000  -0.000 -10.811   0.000  -0.000  13.455  -0.000   0.000
 -0.000   0.000   0.000 -10.811   0.000  -0.000  13.455  -0.000
  0.114  -0.145  -0.000   0.000 -11.216   0.000  -0.000  14.015
 -0.000   0.000  13.455  -0.000   0.000 -16.686   0.000  -0.000
  0.000  -0.000  -0.000  13.455  -0.000   0.000 -16.686   0.000
 -0.141   0.180   0.000  -0.000  14.015  -0.000   0.000 -17.464
 total augmentation occupancy for first ion, spin component:           1
  2.458   0.320  -0.000   0.000  -0.538   0.000   0.000  -0.255
  0.320   0.178  -0.000   0.000  -0.551  -0.000   0.000  -0.165
 -0.000  -0.000   1.686  -0.000  -0.000   0.084  -0.000   0.000
  0.000   0.000  -0.000   1.686  -0.000  -0.000   0.084  -0.000
 -0.538  -0.551  -0.000  -0.000   2.428  -0.000  -0.000   0.543
  0.000  -0.000   0.084  -0.000  -0.000   0.031  -0.000   0.000
  0.000   0.000  -0.000   0.084  -0.000  -0.000   0.031  -0.000
 -0.255  -0.165   0.000  -0.000   0.543   0.000  -0.000   0.156
 total augmentation occupancy for first ion, spin component:           2
 -0.100  -0.056  -0.000   0.000   0.013  -0.000  -0.000   0.014
 -0.056  -0.007  -0.000   0.000   0.007  -0.000  -0.000   0.005
 -0.000  -0.000   0.328  -0.000   0.000  -0.097  -0.000   0.000
  0.000   0.000  -0.000   0.328   0.000  -0.000  -0.097  -0.000
  0.013   0.007   0.000   0.000  -0.032   0.000  -0.000  -0.016
 -0.000  -0.000  -0.097  -0.000   0.000   0.007  -0.000   0.000
 -0.000  -0.000  -0.000  -0.097  -0.000  -0.000   0.007   0.000
  0.014   0.005   0.000  -0.000  -0.016   0.000   0.000  -0.005


------------------------ aborting loop because EDIFF is reached ----------------------------------------





 total charge

# of ion       s       p       d       tot
------------------------------------------
    1        1.611   3.276   0.000   4.887
    2        1.611   3.276   0.000   4.887
--------------------------------------------------
tot          3.223   6.551   0.000   9.774



 magnetization (x)

# of ion       s       p       d       tot
------------------------------------------
    1        0.010   0.801   0.000   0.811
    2        0.010   0.801   0.000   0.811
--------------------------------------------------
tot          0.020   1.602   0.000   1.622
 
    CHARGE:  cpu time      0.2064: real time      0.2066
    FORLOC:  cpu time      0.0225: real time      0.0225
    FORNL :  cpu time      0.1058: real time      0.1059
    STRESS:  cpu time      0.4177: real time      0.4180
    FORCOR:  cpu time      1.4684: real time      1.4697
    FORHAR:  cpu time      0.1786: real time      0.1788
    MIXING:  cpu time      0.0346: real time      0.0347
    OFIELD:  cpu time      0.0000: real time      0.0000

 ---------------------------------------------------------------------------------------------

         DFTD3 V3.0 Rev 1        
 Edisp (eV)   -0.00002

 E6    (eV) :    -0.0000
 E8    (eV) :    -0.0000
 % E8        : 83.34
    FORVDW:  cpu time      0.0039: real time      0.0039

  FORCE on cell =-STRESS in cart. coord.  units (eV):
  Direction    XX          YY          ZZ          XY          YZ          ZX
  --------------------------------------------------------------------------------------
  Alpha Z     0.05874     0.05874     0.05874
  Ewald     374.33827   -46.44875   -46.44875    -0.00000     0.00000    -0.00000
  Hartree   468.68138   273.05570   273.05568    -0.00000    -0.00000    -0.00000
  E(xc)     -57.96714   -59.12610   -59.12610    -0.00000    -0.00000    -0.00000
  Local    -980.82823  -408.51220  -408.51218     0.00000     0.00000     0.00000
  n-local   -47.25871   -43.69773   -43.69778     0.00000    -0.00000     0.00000
  augment    10.44067    13.02316    13.02316    -0.00000     0.00000     0.00000
  Kinetic   232.45635   271.57965   271.57969     0.00000     0.00000     0.00000
  Fock        0.00000     0.00000     0.00000     0.00000     0.00000     0.00000
  vdW         0.00012    -0.00000    -0.00000    -0.00000     0.00000    -0.00000
  -------------------------------------------------------------------------------------
  Total      -0.07855    -0.06753    -0.06753     0.00000     0.00000     0.00000
  in kB      -0.01330    -0.01144    -0.01144     0.00000     0.00000     0.00000
  external pressure =       -0.01 kB  Pullay stress =        0.00 kB


 VOLUME and BASIS-vectors are now :
 -----------------------------------------------------------------------------
  energy-cutoff  :      520.00
  volume of cell :     9462.12
      direct lattice vectors                 reciprocal lattice vectors
    21.150930000  0.000000000  0.000000000     0.047279245  0.000000000  0.000000000
     0.000000000 21.150930000  0.000000000     0.000000000  0.047279245  0.000000000
     0.000000000  0.000000000 21.150930000     0.000000000  0.000000000  0.047279245

  length of vectors
    21.150930000 21.150930000 21.150930000     0.047279245  0.047279245  0.047279245


 FORCES acting on ions
    electron-ion (+dipol)            ewald-force                    non-local-force                 convergence-correction
 -----------------------------------------------------------------------------------------------
   -.289E+03 0.254E-06 0.118E-05   0.341E+03 -.253E-06 -.856E-06   -.519E+02 -.160E-07 0.117E-06   -.247E-03 0.315E-07 0.769E-08
   0.289E+03 -.254E-06 -.118E-05   -.341E+03 0.253E-06 0.856E-06   0.519E+02 0.194E-07 -.117E-06   0.247E-03 -.330E-07 -.775E-08
 -----------------------------------------------------------------------------------------------
   0.287E-06 0.300E-09 0.318E-10   0.000E+00 -.705E-17 0.118E-16   -.708E-07 0.339E-08 0.359E-09   -.381E-06 -.153E-08 -.637E-10
 
 
 POSITION                                       TOTAL-FORCE (eV/Angst)
 -----------------------------------------------------------------------------------
     11.19209     10.57546     10.57546        -0.005468      0.000000      0.000000
      9.95884     10.57547     10.57547         0.005468     -0.000000     -0.000000
 -----------------------------------------------------------------------------------
    total drift:                               -0.000000      0.000000      0.000000


--------------------------------------------------------------------------------------------------------



  FREE ENERGIE OF THE ION-ELECTRON SYSTEM (eV)
  ---------------------------------------------------
  free  energy   TOTEN  =        -9.88464603 eV

  energy  without entropy=       -9.88464603  energy(sigma->0) =       -9.88464603
 
 d Force = 0.1233347E-03[ 0.974E-05, 0.237E-03]  d Energy = 0.1236105E-03-0.276E-06
 d Force =-0.6055359E+00[-0.606E+00,-0.605E+00]  d Ewald  =-0.6055352E+00-0.629E-06


--------------------------------------------------------------------------------------------------------


    POTLOK:  cpu time      1.6948: real time      1.6961


--------------------------------------------------------------------------------------------------------


 stress matrix after NEB project (eV)
     -0.07855      0.00000      0.00000
      0.00000     -0.06753      0.00000
     -0.00000      0.00000     -0.06753
  FORCES: max atom, RMS     0.005468    0.005468
  FORCE total and by dimension    0.007733    0.005468
  Stress total and by dimension    0.123661    0.078553


--------------------------------------------------------------------------------------------------------


  
 reached required accuracy - stopping structural energy minimisation
     LOOP+:  cpu time     26.7261: real time     26.7595
    4ORBIT:  cpu time      0.0000: real time      0.0000



 total charge

# of ion       s       p       d       tot
------------------------------------------
    1        1.611   3.276   0.000   4.887
    2        1.611   3.276   0.000   4.887
--------------------------------------------------
tot          3.223   6.551   0.000   9.774



 magnetization (x)

# of ion       s       p       d       tot
------------------------------------------
    1        0.010   0.801   0.000   0.811
    2        0.010   0.801   0.000   0.811
--------------------------------------------------
tot          0.020   1.602   0.000   1.622
 

 total amount of memory used by VASP MPI-rank0   200945. kBytes
=======================================================================

   base      :      30000. kBytes
   nonl-proj :       3058. kBytes
   fftplans  :      49674. kBytes
   grid      :     115148. kBytes
   one-center:          6. kBytes
   wavefun   :       3059. kBytes
 
  
  
 General timing and accounting informations for this job:
 ========================================================
  
                  Total CPU time used (sec):      466.796
                            User time (sec):      464.847
                          System time (sec):        1.949
                         Elapsed time (sec):      467.449
  
                   Maximum memory used (kb):      480832.
                   Average memory used (kb):          N/A
  
                          Minor page faults:       258897
                          Major page faults:            0
                 Voluntary context switches:          592
